version 2
run General-4-20150916-20:46:14-25771
attr configname General
attr datetime 20150916-20:46:14
attr experiment General
attr inifile omnetpp.ini
attr iterationvars $0=5742
attr iterationvars2 "$0=5742, $repetition=0"
attr measurement $0=5742
attr network CloudDataCenterTS
attr processid 25771
attr repetition 0
attr replication #0
attr resultdir results
attr runnumber 4
attr seedset 4

vector 4  CloudDataCenterTS.sink  responseTime_1  ETV
vector 5  CloudDataCenterTS.sink  delayTime_1  ETV
vector 6  CloudDataCenterTS.sink  queuingTime_1  ETV
vector 7  CloudDataCenterTS.sink  serviceTime_1  ETV
vector 0  CloudDataCenterTS.sink  responseTime_0  ETV
vector 1  CloudDataCenterTS.sink  delayTime_0  ETV
vector 2  CloudDataCenterTS.sink  queuingTime_0  ETV
vector 3  CloudDataCenterTS.sink  serviceTime_0  ETV
0	67	1.724095515435	1.724095515435
0	94	2.572287555152	0.980537555152
0	104	2.793844556271	0.406224556271
0	137	3.956010418458	0.772510418458
0	190	5.23134712701	1.25197712701
0	218	5.85484873008	1.07959873008
0	244	6.405555665287	0.038555665287
0	264	6.900771818255	1.329651818255
0	301	7.792054848469	0.629184848469
0	325	8.480149498552	0.521399498552
0	378	9.754032530443	0.203542530443
0	434	11.291048211465	0.944648211465
0	493	12.536573449286	1.394373449286
0	497	12.553646386632	0.615546386632
0	502	12.619216602429	3.86459660243
0	524	13.133270691116	0.399270691116
0	569	14.572412207327	1.042512207327
0	583	14.833119826843	0.507419826843
0	598	15.372995218587	0.251395218587
0	627	16.612577364436	0.695077364436
0	643	17.032129815342	0.318729815342
0	667	17.805345332043	0.296145332043
0	714	19.21625469842	0.91115469842
0	721	19.397111812811	0.296111812811
0	741	20.046191805579	0.149291805579
0	767	20.746077349452	0.053377349452
0	846	22.921284546816	0.636784546816
0	896	24.264155672666	0.387955672666
0	910	24.586210117587	1.505810117587
0	924	24.796295010545	3.307695010545
0	927	24.821692143634	0.149592143634
0	980	26.077358472027	0.609358472027
0	1029	27.269563148023	1.005663148023
0	1041	27.681097451397	0.621397451397
0	1086	28.769912753045	0.914312753045
0	1134	29.991110265416	1.339610265416
0	1169	30.79899891868	0.55579891868
0	1172	30.809427022867	1.362027022867
0	1192	31.453257982345	0.414157982345
0	1244	32.860838661585	1.025838661585
0	1254	33.155066545998	0.524166545999
0	1271	33.843771791696	0.417071791697
0	1294	34.541440489284	0.318840489284
0	1346	35.878197031099	0.859697031099
0	1410	37.56987653383	1.75547653383
0	1518	40.092586021793	2.686486021793
0	1566	40.99409859991	1.99619859991
0	1575	41.049638591589	1.255938591589
0	1578	41.056146085598	4.445946085598
0	1604	41.492262543118	0.902662543118
0	1617	41.795532965894	3.593532965894
0	1648	42.69088827865	0.50958827865
0	1655	42.857823558398	1.472323558398
0	1684	43.821479875804	0.844279875804
0	1712	44.783444701637	1.010344701637
0	1721	45.021352415502	0.452352415502
0	1738	45.483591209945	0.118791209945
0	1772	46.476492131447	0.315792131447
0	1831	47.903294946149	0.946694946149
0	1850	48.197013037024	0.444513037024
0	1900	49.567378687938	1.019078687938
0	1906	49.703339072209	0.359139072209
0	1937	50.611876567704	0.471776567704
0	1968	51.642741186072	0.706741186072
0	1998	52.359776529606	0.627976529606
0	2028	53.225885116178	0.698185116178
0	2057	53.91877829771	0.59517829771
0	2077	54.540783487696	0.421283487696
0	2092	54.92878040569	0.01348040569
0	2134	56.053652301551	0.342452301551
0	2195	57.516887756208	0.213887756208
0	2225	58.78411162704	2.27701162704
0	2239	58.931909332003	0.833109332003
0	2263	59.414922812414	0.520222812414
0	2278	59.88045582952	0.18985582952
0	2318	61.312692194529	0.826192194529
0	2360	62.414177727228	1.131877727228
0	2419	63.882839159035	0.212839159035
0	2462	64.954450061308	2.876250061308
0	2484	65.354161737569	0.092461737569
0	2543	67.135169488793	0.281669488793
0	2575	68.140888320715	3.675088320715
0	2581	68.376249102773	5.502149102773
0	2631	69.426743759976	0.981543759976
0	2667	70.522930068994	4.465330068995
0	2679	70.653612541288	0.616612541288
0	2730	71.971743092774	0.343043092774
0	2738	72.106374819294	1.273574819294
0	2742	72.131650684149	2.890550684149
0	2768	72.614670409577	4.965370409577
0	2774	72.74275607628	0.31815607628
0	2813	73.884266604207	0.663766604207
0	2875	74.999949552572	0.983649552572
0	2920	76.31447360034	1.50227360034
0	2979	77.694757314951	2.086657314951
0	2991	77.92454450031	1.52054450031
0	3007	78.133274446222	0.137574446222
0	3063	79.628544158838	2.428744158838
0	3075	80.082072189574	0.494572189574
0	3081	80.169480704885	1.377880704885
0	3094	80.648097758606	0.264797758606
0	3118	81.635431432608	0.456231432608
0	3169	83.049344291724	0.278444291724
0	3193	83.64835898151	1.67325898151
0	3211	84.164173324835	0.597373324835
0	3251	85.623805792509	0.465205792509
0	3309	87.281814261084	1.327414261084
0	3331	87.787138628611	3.424438628611
0	3336	87.868458566989	1.118158566989
0	3361	88.595464577895	0.253364577895
0	3401	89.776075225103	2.229875225103
0	3426	90.375809850646	0.442009850646
0	3457	91.103848572868	0.374148572868
0	3478	91.673177619083	2.535277619083
0	3511	92.267699878587	0.742099878587
0	3529	92.59972216505	0.27832216505
0	3606	94.774886777252	0.861686777252
0	3630	95.297367083263	2.180067083263
0	3655	95.672793345757	0.963693345757
0	3691	96.564127246079	0.263327246079
0	3707	97.011403282272	1.506503282272
0	3734	97.771993173287	0.675293173287
0	3800	99.413034072592	0.724634072592
0	3824	99.958543102596	0.474243102596
0	3851	100.546338771677	2.653738771677
0	3859	100.697887669139	0.417887669139
0	3888	101.443223348891	0.367223348891
0	3931	102.57733621938	0.70533621938
0	4022	104.568234935435	1.900234935435
0	4058	105.27598380924	1.81198380924
0	4074	105.61907113402	0.56407113402
0	4083	105.706476474912	1.446476474912
0	4117	106.384620653082	0.533620653082
0	4169	107.786571517916	0.343571517916
0	4200	108.528174067596	1.881174067596
0	4206	108.608685550711	0.369685550711
0	4258	109.848494125254	0.813494125254
0	4266	110.009334859441	0.178334859441
0	4315	111.475968884501	0.848968884501
0	4350	112.325640847825	0.107640847825
0	4359	112.481310347849	1.059310347849
0	4379	113.185779025734	0.171779025734
0	4442	114.932380503624	0.326380503624
0	4495	116.385035643813	0.187035643813
0	4532	117.339579151058	1.937579151058
0	4601	118.75433207637	0.96533207637
0	4618	119.348458000256	5.538458000256
0	4627	119.384291943426	2.390291943426
0	4660	120.02688850699	1.44188850699
0	4674	120.251191461555	0.870191461555
0	4699	120.980510813136	0.007510813136
0	4710	121.245974031302	1.068974031302
0	4736	121.884987577519	0.115987577519
0	4809	123.962100219118	1.397100219118
0	4824	124.156773562997	0.795773562997
0	4867	125.067341159758	0.115341159758
0	4870	125.096432472385	0.940432472385
0	4969	127.808940415155	1.264940415155
0	4980	128.130384275825	2.382384275825
0	4998	128.373301732907	1.033301732907
0	5012	128.717793473675	0.581793473675
0	5059	129.964583528286	1.032583528287
0	5068	130.118503883689	0.390503883689
0	5096	130.892945687314	0.369945687314
0	5140	131.934569298602	0.615569298603
0	5191	133.099136253763	0.984136253763
0	5204	133.489084709372	0.578084709372
0	5278	135.56338608241	1.060386082411
0	5290	135.948027419215	2.241027419215
0	5325	136.720664398782	0.625664398782
0	5357	137.870717463039	0.184717463039
0	5368	138.078486588456	1.188486588457
0	5371	138.182100526817	2.883100526817
0	5390	138.645258758544	0.163258758544
0	5408	139.406948010552	0.128948010553
0	5474	141.842208981498	0.972208981498
0	5485	142.028583244855	1.954583244855
0	5490	142.086336699817	0.420336699817
0	5548	143.257505261316	0.795505261316
0	5597	144.638811661467	0.585811661467
0	5643	145.801009104047	0.952009104047
0	5654	146.026496671777	0.381496671777
0	5662	146.242402034906	2.985402034906
0	5690	147.17309342208	0.73209342208
0	5735	148.495746111124	1.258746111124
0	5758	148.864593791793	0.831593791793
0	5767	149.605839559515	0.776839559515
0	5801	150.423614389303	0.799614389303
0	5831	151.341971747323	0.125971747323
0	5836	151.383618893933	0.963618893933
0	5904	154.024515939241	0.420515939241
0	5911	154.216385503065	2.204385503065
0	5942	154.86032955267	2.05232955267
0	5963	155.275617014597	0.875617014597
0	5982	155.816861028455	0.620861028455
0	6015	156.772696511831	0.781696511831
0	6066	158.194748112665	0.611748112665
0	6117	159.606493835722	2.819493835722
0	6124	159.653299840563	0.478299840563
0	6184	161.535795620332	3.156795620332
0	6199	161.676347465599	0.909347465599
0	6226	162.432515805477	2.461515805477
0	6264	163.209030387859	0.851030387859
0	6274	163.456467795712	1.893467795712
0	6312	164.298285039726	0.348285039726
0	6341	165.216318026912	0.470318026912
0	6346	165.37736962271	2.22336962271
0	6364	165.756943006981	0.214943006981
0	6395	166.649409914866	0.311409914866
0	6423	167.380125721001	0.246125721001
0	6484	169.100632669314	0.375632669314
0	6511	169.99090318732	0.46990318732
0	6530	170.389064776809	0.072064776809
0	6553	170.986096558343	3.056096558343
0	6605	172.24877863812	0.33977863812
0	6664	174.275159679344	0.774159679344
0	6707	175.396869730307	0.304869730307
0	6777	177.394257732776	1.506257732776
0	6807	177.742346707471	5.037346707471
0	6905	180.159408997184	1.087408997184
0	6950	181.02282097591	4.33882097591
0	6980	181.561958451083	3.285958451083
0	6984	181.604631522772	4.124631522772
0	7033	182.696496797046	2.828496797046
0	7039	182.773143555453	2.109143555453
0	7049	182.998203877951	1.539203877951
0	7070	183.332217178033	0.281217178033
0	7108	184.184796700793	1.929796700793
0	7155	185.069708823624	1.222708823624
0	7159	185.100620941285	13.987620941285
0	7169	185.247312378285	10.950312378285
0	7187	185.458712908349	0.815712908349
0	7190	185.47131334602	0.03231334602
0	7221	186.369663755307	0.134663755307
0	7260	187.462511401156	0.431511401156
0	7278	187.849202454724	0.023202454724
0	7314	189.407699860588	0.785699860588
0	7330	189.623290888368	0.205290888368
0	7367	190.795139875312	0.581139875312
0	7385	191.497480751048	0.487480751048
0	7419	192.625985086552	0.023985086552
0	7424	192.724040678139	0.918040678139
0	7455	193.606492376285	0.208492376285
0	7499	194.984192326443	0.791192326443
0	7550	196.181560064645	1.192560064645
0	7558	196.333406657589	0.548406657589
0	7578	196.907962627674	0.326962627674
0	7609	198.163994215389	0.786994215389
0	7622	198.397011064679	0.224011064679
0	7668	200.104236289545	0.339236289545
0	7675	200.208200261449	1.239200261449
0	7693	200.671351996788	0.111351996788
0	7739	202.418427052923	1.062427052923
0	7754	202.90630773279	0.75430773279
0	7799	204.036301038743	1.088301038743
0	7823	204.627004428986	0.087004428986
0	7875	206.273685626478	0.937685626478
0	7919	207.260231472267	0.333231472267
0	7927	207.344984782908	1.213984782908
0	7951	207.911396873638	0.188396873638
0	8071	211.012629269476	2.493629269476
0	8085	211.235302441592	7.491302441592
0	8094	211.422984666792	1.311984666792
0	8132	212.429288348896	0.726288348896
0	8145	212.558104986331	3.243104986331
0	8215	214.240511380316	0.946511380316
0	8246	215.080022502576	0.194022502576
0	8258	215.657889365373	4.750889365373
0	8271	215.791549110839	1.701549110839
0	8278	215.948289271574	0.266289271574
0	8288	216.094358155743	3.596358155743
0	8346	218.002404132313	0.728404132313
0	8397	219.276789985988	2.798789985988
0	8419	219.677687055001	0.812687055001
0	8435	219.995859529113	0.334859529113
0	8503	221.586739545626	0.333739545626
0	8520	221.852589143018	3.782589143018
0	8536	222.068233083419	1.611233083419
0	8606	223.863207507565	1.018207507565
0	8622	224.394682759881	0.753682759881
0	8644	224.772331174803	2.723331174803
0	8648	224.891122604708	0.454122604708
0	8711	226.597965752748	0.569965752748
0	8729	227.068940450186	1.836940450186
0	8768	228.218264620228	0.598264620228
0	8788	228.667792568705	1.843792568705
0	8800	229.095752024633	0.679752024633
0	8849	230.160528092622	0.948528092622
0	8856	230.326676769501	0.318676769501
0	8906	231.805499042393	1.001499042393
0	8916	232.045642980293	0.446642980293
0	8978	233.430695043481	1.035695043481
0	9014	234.269610805293	0.282610805293
0	9049	235.065368611701	0.282368611701
0	9084	235.976762436812	0.397762436812
0	9101	236.542263375812	0.167263375812
0	9153	237.767186150729	0.596186150729
0	9202	239.098307770048	5.907307770048
0	9212	239.352052679262	1.386052679262
0	9259	240.342526647387	1.580526647387
0	9291	240.818469697328	0.464469697328
0	9310	241.25228890473	0.10228890473
0	9322	241.564585615966	2.006585615966
0	9342	241.982153361326	0.036153361326
0	9456	245.088741574032	1.550741574032
0	9488	245.816444601917	0.687444601917
0	9509	246.181904440691	1.848904440691
0	9552	247.295113554029	0.574113554029
0	9600	248.641767301931	0.328767301931
0	9623	249.402278447231	0.293278447231
0	9633	249.633360170976	2.116360170976
0	9665	250.22655181894	4.30155181894
0	9668	250.241699476143	0.336699476143
0	9678	250.538646732879	7.796646732879
0	9694	250.922012990253	0.222012990253
0	9734	252.420157834965	0.128157834965
0	9755	253.020137808571	1.524137808571
0	9810	254.65228984298	1.56428984298
0	9819	254.687742357053	0.803742357053
0	9864	256.133667136254	0.657667136254
0	9955	258.383405625568	1.316405625568
0	9958	258.401956402696	0.538956402696
0	9972	258.749568514347	4.069568514347
0	9985	259.057652872904	2.785652872904
0	9988	259.148020878921	0.489020878921
0	10015	259.999498891437	0.544498891438
0	10068	261.312106962849	1.06110696285
0	10098	262.189230258934	0.346230258934
0	10179	264.137337727133	1.498337727133
0	10211	264.816756404851	0.586756404851
0	10244	265.410341829746	0.384341829746
0	10262	265.724158119597	4.677158119597
0	10279	266.078041569895	2.644041569895
0	10305	266.742216968461	0.920216968461
0	10346	267.670491158797	1.052491158797
0	10382	268.359054338159	0.14905433816
0	10458	270.199193862679	2.785193862679
0	10470	270.427880568592	0.626880568592
0	10497	271.054643153063	0.457643153064
0	10527	271.654104315161	0.261104315162
0	10538	272.160691261625	3.154691261626
0	10561	272.724220784001	0.535220784001
0	10624	274.494484023121	0.713484023121
0	10647	274.846758370334	1.861758370334
0	10670	275.410084838491	0.833084838491
0	10681	275.716768829826	0.343768829826
0	10748	277.630985197385	0.666985197385
0	10766	278.039291815677	0.279291815677
0	10769	278.080385217761	1.912385217761
0	10815	279.480402338211	0.924402338212
0	10848	280.220985766205	0.868985766206
0	10884	281.291516632422	0.347516632422
0	10899	281.698440579091	1.550440579091
0	10912	281.931872545225	0.191872545225
0	10945	282.982447389905	0.447447389905
0	10972	284.110740278422	0.779740278422
0	11006	284.838493572804	0.711493572804
0	11048	285.858526119903	0.935526119903
0	11064	286.105103622032	0.386103622032
0	11101	287.271243977496	0.756243977496
0	11133	287.883187145699	0.572187145699
0	11153	288.638537095671	0.531537095671
0	11176	289.316341112482	0.414341112482
0	11198	289.902085380112	0.204085380112
0	11231	290.783743162645	0.289743162645
0	11261	291.540586200872	0.250586200872
0	11309	292.606395082739	0.520395082739
0	11328	293.259093812279	0.377093812279
0	11372	294.393836083987	0.715836083987
0	11393	294.917643723286	0.443643723286
0	11418	295.57587250797	0.30687250797
0	11460	297.023074334824	0.162074334824
0	11474	297.461080269891	1.396080269891
0	11495	297.834511994325	0.177511994325
0	11508	298.636561688448	0.183561688448
0	11537	299.54047381331	0.29147381331
0	11600	301.674757102839	0.833757102839
0	11643	302.645242189196	1.009242189196
0	11675	303.098657732674	3.053657732674
0	11693	303.469639158593	0.241639158593
0	11700	303.612335552625	1.180335552625
0	11760	305.351822448055	1.327822448055
0	11790	306.032444721572	1.212444721572
0	11823	306.716232090515	1.100232090515
0	11865	307.793875197602	0.585875197602
0	11881	308.092962856994	1.680962856994
0	11907	308.944116125466	0.145116125466
0	11915	309.228078501647	1.225078501647
0	12002	311.35682844871	0.16982844871
0	12013	311.430340303139	1.039340303139
0	12023	311.542094575475	1.947094575475
0	12064	312.851651716919	0.072651716919
0	12068	312.904499562436	0.921499562436
0	12137	314.752016336121	0.382016336121
0	12166	315.678187264704	0.512187264704
0	12197	316.525614927468	0.563614927468
0	12219	317.10215857178	3.52715857178
0	12243	317.864794341322	0.310794341322
0	12297	319.372635411942	2.614635411942
0	12311	319.675906002264	0.529906002264
0	12335	320.236034366457	0.294034366457
0	12340	320.263203324283	1.913203324283
0	12385	321.40717276615	0.67017276615
0	12403	321.871349103365	0.338349103365
0	12441	322.884660046498	0.555660046498
0	12466	323.86453433098	0.73953433098
0	12497	324.693563107237	0.772563107237
0	12544	325.92287873804	1.20587873804
0	12552	326.091936242538	0.578936242538
0	12619	327.763431343068	0.659431343068
0	12636	328.004818055917	0.104818055917
0	12676	329.230931416483	0.534931416483
0	12696	329.864311460196	0.372311460196
0	12704	329.982087820508	3.673087820508
0	12739	331.115084356143	0.827084356143
0	12749	331.292831673048	0.208831673048
0	12782	332.702092777846	0.026092777846
0	12790	332.933025373151	1.053025373151
0	12844	334.538462404741	0.271462404741
0	12854	335.060576949554	1.589576949554
0	12868	335.283943644457	0.220943644457
0	12906	336.453698536972	0.594698536972
0	12920	336.89641732538	0.24141732538
0	12957	338.450488155187	0.203488155187
0	12964	338.628906850797	1.177906850797
0	12996	339.809147955707	0.766147955707
0	13025	340.67743006153	0.83943006153
0	13043	341.311536718598	0.677536718598
0	13078	342.341830189251	0.115830189251
0	13087	342.561350712243	1.131350712243
0	13134	344.301723977043	1.279723977043
0	13166	345.138650352195	0.524650352195
0	13171	345.309009161708	1.491009161708
0	13205	346.282275428599	0.872275428599
0	13210	346.422643049175	0.217643049175
0	13230	347.278495514678	0.277495514678
0	13263	348.49161165153	0.69461165153
0	13281	348.828927357388	0.235927357388
0	13363	351.239410248799	1.054410248799
0	13373	351.573833115433	2.184833115433
0	13383	351.761054461268	0.780054461268
0	13397	351.889218993267	0.112218993267
0	13422	352.761884562832	0.189884562832
0	13470	354.312903448912	0.944903448912
0	13482	354.620215133798	0.456215133798
0	13504	355.028138776943	0.068138776943
0	13547	356.562427020077	0.806427020077
0	13579	357.470486441919	0.122486441919
0	13588	357.666496059006	1.114496059006
0	13635	358.981680137331	0.837680137331
0	13654	359.519657210069	0.580657210069
0	13692	360.420840841421	0.685840841421
0	13723	361.338206077108	0.807206077108
0	13754	362.18102633567	0.05802633567
0	13769	362.792884800309	1.465884800309
0	13806	363.977176913775	1.058176913775
0	13835	364.748637826373	0.237637826373
0	13840	364.914257850822	1.199257850822
0	13856	365.562542825744	0.256542825744
0	13868	366.266734780164	0.164734780164
0	13890	367.017275897248	0.119275897248
0	13925	368.308176753694	0.614176753694
0	13999	370.500120857749	2.010120857749
0	14026	371.108299134956	1.026299134956
0	14029	371.126339549994	1.840339549994
0	14032	371.513814333004	0.635814333004
0	14045	371.795245351208	0.122245351208
0	14060	372.61259738001	0.14359738001
0	14082	373.388348402191	0.123348402191
0	14137	375.109690593896	1.048690593896
0	14155	375.793690149896	0.140690149896
0	14220	377.848896917119	0.603896917119
0	14259	378.959926928806	0.123926928806
0	14309	380.355611108045	3.906611108045
0	14365	381.566028878941	3.526028878941
0	14390	382.188420025151	1.760420025151
0	14414	382.582655242186	1.358655242186
0	14437	382.85067207359	7.99367207359
0	14440	382.861105971496	3.229105971496
0	14458	383.285858546	0.469858546
0	14485	384.31311575468	2.29311575468
0	14503	384.686201542111	0.279201542111
0	14587	387.141433349733	1.142433349733
0	14591	387.218703471694	0.423703471694
0	14618	387.827213521409	0.236213521409
0	14752	391.793498223816	2.610498223816
0	14766	392.102395681196	1.328395681196
0	14788	392.660708872158	0.294708872158
0	14814	393.381363120147	3.402363120147
0	14826	393.845820848763	0.683820848763
0	14852	394.250520905323	10.638520905323
0	14879	394.769103495846	9.566103495846
0	14898	395.273069690445	1.315069690445
0	14922	395.942388514114	1.188388514114
0	14930	396.076171800987	4.506171800987
0	14954	396.702268153456	0.356268153456
0	14961	396.737374345456	1.187374345456
0	14988	397.500320902612	0.359320902612
0	14993	397.679632603902	9.292632603902
0	15052	399.544957359436	0.811957359436
0	15096	400.535514236524	2.598514236524
0	15113	400.960005305052	0.635005305052
0	15158	402.5377697509	3.0087697509
0	15202	403.339790999997	0.627790999997
0	15206	403.442802789849	2.321802789849
0	15218	403.580249154003	0.072249154003
0	15286	405.361254661367	1.057254661367
0	15292	405.451449564115	0.351449564115
0	15339	406.485235063549	4.568235063549
0	15342	406.511722597177	0.615722597177
0	15366	406.92291510663	0.23091510663
0	15409	408.237580439962	0.749580439962
0	15451	409.334699856546	0.255699856546
0	15461	409.620936467672	1.336936467672
0	15476	409.916243139604	0.041243139604
0	15509	411.344466044613	0.673466044613
0	15536	411.991652929492	0.524652929492
0	15637	414.389225198626	0.534225198626
0	15643	414.440159562198	1.381159562198
0	15691	415.577312953093	0.926312953093
0	15727	416.481044430396	4.218044430396
0	15755	417.033213899717	1.587213899717
0	15778	417.52547910304	0.48747910304
0	15789	417.732787931314	1.490787931314
0	15804	417.936972099386	0.102972099386
0	15840	419.206697810032	0.576697810032
0	15889	420.415417039425	0.193417039425
0	15905	420.970025397827	1.544025397827
0	15931	421.589818960805	0.571818960805
0	15943	421.917232667114	0.104232667114
0	15976	423.023614472973	0.414614472973
0	16016	424.086496576815	0.681496576815
0	16040	424.478198640435	0.277198640435
0	16080	425.481269527036	0.484269527036
0	16117	426.796622200867	1.003622200867
0	16133	427.214144178569	0.625144178569
0	16156	428.154285289829	0.769285289829
0	16175	428.389724911882	0.209724911882
0	16201	429.34088375029	0.36488375029
0	16219	429.845899367528	0.073899367528
0	16245	430.856366599834	0.288366599834
0	16303	432.530352877402	1.166352877402
0	16388	434.45738685152	1.50138685152
0	16391	434.468900389272	2.308900389272
0	16429	435.146662569309	1.394662569309
0	16450	435.52555576066	0.97855576066
0	16480	436.162112428221	0.819112428221
0	16488	436.267074283052	0.128074283052
0	16527	437.066471206669	0.131471206669
0	16585	438.790839082285	1.059839082285
0	16611	439.514655572324	0.191655572324
0	16646	440.805633630936	0.686633630936
0	16680	441.587389454715	0.673389454715
0	16731	442.929353430072	0.423353430072
0	16752	443.420580257587	4.893580257587
0	16804	444.869076536505	0.771076536505
0	16852	446.235229646618	0.545229646618
0	16865	446.499224346568	3.197224346568
0	16884	447.20115005533	5.49115005533
0	16911	447.669616874701	1.183616874701
0	16924	447.930796349087	3.036796349087
0	16950	448.504093932487	0.427093932487
0	16959	448.762007894015	1.481007894015
0	17002	449.816939647386	0.147939647386
0	17016	450.319013699549	1.446013699549
0	17038	450.782866738831	0.317866738831
0	17097	452.208227614965	0.151227614965
0	17100	452.223490758702	0.962490758702
0	17132	453.045058623834	0.192058623834
0	17158	453.664848026966	0.016848026966
0	17244	455.653937968615	0.413937968615
0	17267	456.215110555153	1.771110555153
0	17284	456.706020485622	0.670020485622
0	17317	457.393920298704	0.561920298704
0	17344	458.058177977741	0.430177977741
0	17403	459.465061431741	1.041061431741
0	17406	459.500614809127	0.280614809127
0	17434	460.29808544062	0.28308544062
0	17454	460.983532065632	0.172532065632
0	17486	461.78628014354	0.17928014354
0	17521	462.724576863461	0.321576863461
0	17577	464.171016031296	0.176016031296
0	17600	464.755866228075	1.556866228075
0	17663	465.964417023309	1.173417023309
0	17697	466.587903623704	1.000903623704
0	17700	466.648317644879	0.266317644879
0	17724	467.450954312153	0.272954312153
0	17756	468.308653592638	0.334653592638
0	17787	469.27767511165	0.50767511165
0	17837	470.618634035092	1.052634035092
0	17845	470.825649325023	0.463649325023
0	17869	471.371324702319	0.213324702319
0	17911	472.853676640745	0.899676640745
0	17957	474.126454726936	1.377454726936
0	17983	474.74442196041	0.40342196041
0	17994	475.038464497507	1.493464497507
0	18056	476.464126313178	0.531126313178
0	18063	476.639938461762	1.502938461762
0	18082	477.092149493096	0.363149493096
0	18114	477.754085750606	0.229085750606
0	18148	478.833543870364	0.512543870364
0	18165	479.306049640771	0.190049640771
0	18208	480.628644812939	0.716644812939
0	18230	481.337816613025	0.629816613025
0	18250	482.047698892904	0.543698892904
0	18298	483.444519204666	0.348519204666
0	18338	484.567515422642	0.675515422642
0	18347	484.710131270788	2.410131270788
0	18361	485.226461524668	0.538461524668
0	18383	485.792936299815	0.309936299815
0	18422	486.977677875797	0.698677875797
0	18473	488.074688202925	0.203688202925
0	18479	488.319889371685	1.244889371685
0	18520	489.426200556646	0.759200556646
0	18564	490.600330034488	1.137330034488
0	18615	491.544068107981	1.285068107981
0	18642	492.205630136008	1.150630136008
0	18663	492.646602725668	0.796602725668
0	18674	493.070186400233	0.424186400233
0	18704	493.985383185554	0.543383185554
0	18726	494.880640545342	0.642640545342
0	18798	496.723093174658	0.893093174658
0	18803	496.801715269642	0.175715269642
0	18845	498.283460219858	0.861460219858
0	18883	499.454752971784	1.237752971784
0	18891	499.615211328892	4.581211328892
0	18894	499.648837727226	0.635837727226
0	18915	500.193835044165	0.384835044165
0	18948	501.156075247666	0.551075247666
0	19046	503.463168263692	1.266168263692
0	19071	503.903606895284	0.114606895284
0	19081	504.107944705679	1.114944705679
0	19176	506.230362454067	0.850362454067
0	19179	506.261767219883	1.677767219883
0	19279	508.72708967887	0.95908967887
0	19283	508.783134626995	1.811134626995
0	19321	509.597661364685	3.421661364685
0	19324	509.606958125404	1.042958125404
0	19410	511.827082083625	0.080082083625
0	19422	512.024077845915	1.868077845915
0	19430	512.201439789936	10.800439789936
0	19458	512.750353483492	3.390353483492
0	19461	512.771833439758	0.228833439758
0	19536	514.752399585166	1.413399585166
0	19568	515.615972070855	4.664972070855
0	19604	516.383224032422	0.656224032422
0	19607	516.413294973512	1.482294973512
0	19623	516.679200291334	0.156200291334
0	19644	517.158449023367	3.023449023367
0	19687	518.468500248711	0.354500248711
0	19728	519.885514835066	2.567514835066
0	19737	520.090153762588	1.180153762589
0	19764	520.631560313166	0.129560313167
0	19829	522.098408947559	0.800408947559
0	19866	522.76718291354	3.06118291354
0	19893	523.16327181455	1.06927181455
0	19927	524.346238422572	0.661238422573
0	19947	524.884671438909	1.994671438909
0	20003	526.084433285111	0.807433285111
0	20022	526.581593561905	0.508593561905
0	20030	526.830668930529	2.349668930529
0	20087	528.083517643371	1.214517643371
0	20123	528.943659362935	1.278659362936
0	20148	529.401660443881	0.940660443881
0	20155	529.588984774967	0.331984774968
0	20175	530.169672880701	0.117672880701
0	20204	531.351630799304	0.503630799305
0	20228	532.095488170686	0.451488170686
0	20253	532.936613206017	0.496613206017
0	20275	533.396234870861	0.160234870861
0	20297	534.364195247352	0.332195247352
0	20329	535.195101941734	0.367101941734
0	20340	535.678257703156	0.054257703156
0	20373	537.05210105322	0.63310105322
0	20386	537.293213826653	0.078213826653
0	20427	538.636632632253	0.625632632254
0	20449	539.098898805725	0.291898805725
0	20470	539.844891146933	0.241891146934
0	20495	540.616221666643	0.217221666643
0	20588	543.396183012546	2.201183012546
0	20593	543.460865227027	0.674865227028
0	20608	543.64895460394	0.06695460394
0	20619	543.781983008589	1.790983008589
0	20637	544.480940910276	0.102940910276
0	20687	546.334533262106	0.364533262106
0	20697	546.518287119801	1.344287119801
0	20746	547.992619596786	0.430619596786
0	20785	548.970650120001	0.612650120002
0	20807	549.345586756126	2.579586756127
0	20836	549.990338357147	0.837338357147
0	20849	550.276381511931	0.327381511932
0	20953	552.890639688863	1.349639688863
0	20976	553.364413911436	0.231413911436
0	20991	553.65616069279	1.31916069279
0	20999	553.841743611361	3.096743611361
0	21026	554.617491142839	0.688491142839
0	21088	556.033062921282	1.308062921282
0	21093	556.215055638001	0.695055638001
0	21161	558.217471027097	1.105471027098
0	21176	558.567610389722	0.659610389722
0	21179	558.585623803951	2.269623803951
0	21195	559.102709219825	0.398709219826
0	21256	560.835768535011	0.539768535011
0	21274	561.428550471517	1.928550471517
0	21316	562.512005536144	0.625005536145
0	21350	563.53832120231	2.44632120231
0	21365	563.875015487852	1.192015487852
0	21370	563.909235699079	0.430235699079
0	21413	565.002985198015	0.727985198015
0	21443	565.629179956531	0.558179956531
0	21469	566.436038861881	0.569038861881
0	21487	567.012197022981	0.349197022981
0	21530	568.111454365107	0.652454365107
0	21546	568.406365702399	0.152365702399
0	21608	570.521273209125	0.675273209125
0	21647	571.618268816255	0.976268816255
0	21658	571.672991474859	0.234991474859
0	21661	571.720171669706	2.670171669706
0	21695	572.778127721884	0.544127721884
0	21867	576.579095374316	3.549095374316
0	21872	576.591874082896	0.378874082896
0	21876	576.684301001399	1.267301001399
0	21885	576.975750730236	2.354750730236
0	21902	577.388203626353	3.562203626353
0	21952	578.752536758373	0.947536758373
0	21960	578.984258088054	0.383258088054
0	22000	579.95254337248	2.94354337248
0	22040	580.719374041499	1.322374041499
0	22043	580.736756387475	0.543756387475
0	22062	581.217352832232	0.229352832232
0	22103	582.581233796273	0.797233796273
0	22111	582.911381266611	0.331381266611
0	22141	583.953245192917	0.577245192917
0	22173	584.992172947541	0.820172947541
0	22222	586.209275026652	1.241275026652
0	22262	587.179614762786	1.415614762786
0	22265	587.261682309599	0.701682309599
0	22319	588.440355577628	0.289355577628
0	22332	588.69500391999	1.34000391999
0	22354	589.025325717252	0.078325717252
0	22387	590.454774343478	0.711774343478
0	22430	591.445255529899	0.110255529899
0	22462	592.142341506105	1.603341506105
0	22486	592.593832834923	0.462832834923
0	22523	593.953751040539	1.026751040539