version 2
run General-0-20150910-10:05:29-4312
attr configname General
attr datetime 20150910-10:05:29
attr experiment General
attr inifile omnetpp.ini
attr iterationvars ""
attr iterationvars2 $repetition=0
attr measurement ""
attr network CloudDataCenterTS
attr processid 4312
attr repetition 0
attr replication #0
attr resultdir results
attr runnumber 0
attr seedset 0

vector 0  CloudDataCenterTS.sink  responseTime_0  ETV
vector 1  CloudDataCenterTS.sink  delayTime_0  ETV
vector 2  CloudDataCenterTS.sink  queuingTime_0  ETV
vector 3  CloudDataCenterTS.sink  serviceTime_0  ETV
vector 4  CloudDataCenterTS.sink  responseTime_1  ETV
vector 5  CloudDataCenterTS.sink  delayTime_1  ETV
vector 6  CloudDataCenterTS.sink  queuingTime_1  ETV
vector 7  CloudDataCenterTS.sink  serviceTime_1  ETV
0	38	0.817298619172	0.817298619172
0	93	2.33351844489	0.42341844489
0	113	2.651943349358	0.105143349358
0	122	2.871639189128	1.598239189128
0	160	3.870278198631	0.686778198631
0	194	4.506282575938	0.686082575938
0	244	5.424904955833	0.331304955833
0	304	6.628387731393	0.898087731393
0	314	6.872506869845	0.505506869845
0	321	6.967072695745	2.510172695745
0	395	8.341965431122	0.701565431122
0	402	8.390034833082	1.386334833082
0	411	8.475823292702	0.198733292703
0	456	9.541652342835	0.627862342835
0	487	9.999562904382	0.449072904382
0	533	11.033666595318	0.209766595318
0	548	11.294609228766	1.107409228766
0	604	12.462596088671	1.001996088671
0	628	12.959887840241	0.862587840241
0	647	13.444831967623	0.710831967623
0	680	14.433469652713	1.062769652713
0	735	15.55571914717	0.27491914717
0	740	15.626184112526	0.982084112526
0	772	16.283099963818	0.365599963818
0	819	17.341424050179	3.334024050179
0	841	17.823492626976	1.269292626976
0	858	18.074205107849	0.246605107849
0	918	19.631380965638	0.530380965638
0	932	19.829682805891	1.365382805891
0	990	21.064678056182	3.873778056182
0	1010	21.370282651561	1.632582651561
0	1014	21.451878009274	0.440778009274
0	1020	21.571653630408	1.197253630408
0	1119	23.315425276499	1.667625276499
0	1124	23.403530966205	0.482330966205
0	1156	24.134343020338	1.849843020338
0	1171	24.243993126612	0.049393126612
0	1209	25.1784230625	0.3471230625
0	1233	25.607381004026	0.139381004026
0	1282	26.912356873891	0.170956873891
0	1384	29.084737440735	1.069937440735
0	1409	29.627776129734	0.339576129734
0	1466	30.580299635719	3.202199635719
0	1482	30.759955971744	0.835055971744
0	1487	30.80709069121	7.24919069121
0	1507	31.110964772124	0.549364772124
0	1529	31.731430958811	5.626730958811
0	1553	32.220428048823	1.022128048823
0	1576	32.785633893385	0.950633893385
0	1585	32.988431749285	0.516731749285
0	1607	33.398729918272	4.747229918272
0	1667	34.684523386475	0.939423386475
0	1680	34.984014420919	1.875614420919
0	1718	35.674719633209	1.292919633209
0	1727	35.876899880285	0.858399880285
0	1730	35.899703173745	0.244503173745
0	1770	36.929427936899	0.637527936899
0	1782	37.196102265096	0.267502265096
0	1861	38.784845292886	0.582845292886
0	1913	39.730661410171	0.891961410171
0	1943	40.255288777583	0.779888777583
0	1974	41.119117205335	0.370317205335
0	1982	41.214641108053	3.649341108053
0	2011	41.68479645926	0.29929645926
0	2017	41.86672784487	1.75462784487
0	2035	42.452077609592	0.429877609592
0	2073	43.398624838625	0.739724838625
0	2106	44.150511748411	0.854911748411
0	2144	45.249460706863	0.680460706863
0	2162	45.750560416532	0.544860416532
0	2182	45.999021189092	2.066721189092
0	2209	46.606440034074	0.127340034074
0	2225	46.879361858039	1.036961858039
0	2305	48.517418123029	0.128218123029
0	2358	49.446639856349	0.420739856349
0	2383	49.791389087301	2.038889087301
0	2457	51.122580707949	0.823280707949
0	2511	52.054076886993	0.481376886993
0	2608	54.045796519855	1.199696519855
0	2635	54.508364188617	3.572364188617
0	2659	54.710274427031	0.590774427031
0	2662	54.724149330492	5.061549330492
0	2706	55.661984646753	0.905784646753
0	2731	56.154199761436	0.761299761436
0	2755	56.710181177871	0.043881177871
0	2803	57.887912595595	4.405112595595
0	2839	58.429169281864	0.489469281864
0	2880	59.340669063794	3.311069063794
0	2898	59.702811328424	12.587011328424
0	2919	59.864152373246	0.651052373246
0	2933	60.152196871062	2.849196871062
0	2962	60.695522863582	0.209022863582
0	2987	61.264165081249	2.687765081249
0	3018	61.849539937858	1.999739937858
0	3031	62.128802486799	1.005602486799
0	3042	62.270593954411	0.510693954411
0	3046	62.305820925269	10.096420925269
0	3060	62.473730668207	0.077130668207
0	3100	63.45142164588	0.41812164588
0	3128	64.069329805799	0.399329805799
0	3179	65.06847374913	0.76177374913
0	3234	66.080414806009	1.137014806009
0	3269	66.659361093512	1.079261093512
0	3275	66.754504505696	0.537704505696
0	3295	67.113615171869	0.260115171869
0	3338	68.602560902838	0.475660902838
0	3379	69.441634751931	0.678034751931
0	3386	69.543066518015	2.052866518015
0	3416	70.410079802402	1.009779802402
0	3423	70.50087144011	0.46387144011
0	3473	71.609217969904	0.935517969904
0	3505	72.266954639674	0.956554639674
0	3561	73.228473285396	1.281373285396
0	3576	73.476257676107	0.255757676107
0	3586	73.63640616889	1.05260616889
0	3643	74.898748269955	1.041548269955
0	3650	74.998453627497	0.504553627497
0	3672	75.344771515176	0.214171515176
0	3723	76.576878456209	0.172878456209
0	3767	77.652840558137	0.612140558137
0	3770	77.672318645133	1.905018645133
0	3797	78.195275411632	0.517875411632
0	3817	78.515522890122	0.201422890122
0	3844	79.185514934015	0.234714934015
0	3911	80.425449492435	0.201249492435
0	3925	80.780091984402	1.192591984402
0	3939	80.92161577984	0.06081577984
0	3973	81.881115619793	0.383615619793
0	4001	82.412708727089	0.278508727089
0	4018	82.95732537995	0.18642537995
0	4102	84.704343746533	1.296743746533
0	4112	84.905505603879	0.861205603879
0	4154	85.674241604663	0.356541604663
0	4158	85.823608027725	1.142608027725
0	4216	87.2590653012	0.6679653012
0	4281	88.695546245071	0.831046245071
0	4310	89.347816833511	3.393416833511
0	4416	91.066962241076	0.655662241076
0	4421	91.119928760716	3.892128760716
0	4429	91.175498532598	2.037598532598
0	4470	92.079958553664	0.395258553664
0	4534	93.239230908595	0.917830908595
0	4551	93.524344707518	0.566244707518
0	4573	94.022537038582	2.974537038582
0	4594	94.457686024498	4.683086024498
0	4629	94.882293401882	1.287493401882
0	4637	94.949472945149	6.448272945149
0	4653	95.173620563348	0.942120563348
0	4659	95.2327774207	0.3645774207
0	4693	96.072607842674	0.567707842674
0	4760	96.981639520753	0.203339520753
0	4807	97.961045046155	0.546045046155
0	4828	98.185927652094	0.134227652094
0	4843	98.574040671138	2.432440671138
0	4874	99.301888154132	0.613488154132
0	4925	100.303560943474	0.341760943474
0	4940	100.731010165152	0.132010165152
0	4971	101.512383441166	2.187283441166
0	4975	101.55253556656	0.31753556656
0	5024	102.823514469451	0.314514469451
0	5037	102.998968465567	1.126968465567
0	5065	103.720459242393	0.575459242393
0	5114	104.792048620985	0.373048620985
0	5117	104.795382806167	1.013382806167
0	5142	105.219411419728	0.164411419728
0	5167	105.922396726416	0.230396726416
0	5217	107.163352224504	0.197352224504
0	5235	107.604864378342	1.275864378342
0	5242	107.739217618668	0.137217618668
0	5287	108.852641916427	0.613641916427
0	5326	109.787085911399	0.911085911399
0	5351	110.303884686849	0.154884686849
0	5374	110.851058273064	1.339058273064
0	5386	111.059932019581	0.273932019581
0	5412	111.838373737954	0.416373737954
0	5430	112.311241956742	0.252241956742
0	5468	113.565271258722	0.869271258722
0	5544	115.32216295382	1.35316295382
0	5561	115.663208730714	2.330208730714
0	5568	115.789389728021	0.546389728021
0	5611	116.588048464547	0.709048464547
0	5616	116.669405890152	0.153405890152
0	5636	117.055410635985	2.449410635985
0	5648	117.197709843079	0.044709843079
0	5679	118.071077044736	0.282077044736
0	5744	119.649047138134	0.586047138134
0	5798	120.961580800932	0.625580800932
0	5810	121.029313738411	1.329313738411
0	5878	122.368586226046	3.942586226046
0	5881	122.377391175804	0.131391175804
0	5889	122.462331764339	0.852331764339
0	5921	123.109980629734	2.136980629734
0	5926	123.125849891457	0.242849891457
0	6000	124.51057017698	0.35457017698
0	6093	126.594538158227	0.527538158227
0	6145	127.486028135075	3.966028135075
0	6158	127.947580325968	3.154580325968
0	6173	128.151674768042	0.811674768042
0	6178	128.158480049113	0.181480049113
0	6190	128.548222236287	3.118222236287
0	6224	129.234320437844	2.531320437844
0	6237	129.363189375032	0.113189375032
0	6248	129.599915955218	0.986915955218
0	6261	130.00059149807	0.11359149807
0	6280	130.717531275481	0.194531275481
0	6303	131.431352873668	0.271352873668
0	6366	132.83275113452	0.39875113452
0	6462	134.558398399887	0.851398399887
0	6549	136.162094167581	1.182094167582
0	6576	136.681998130462	3.611998130462
0	6609	137.169428861012	1.552428861013
0	6676	138.511453305072	4.167453305072
0	6679	138.519587067873	1.629587067874
0	6691	138.697208764956	1.170208764957
0	6709	138.846444556175	2.592444556176
0	6717	138.93850844842	0.137508448421
0	6726	139.066892107716	0.902892107717
0	6748	139.513179792337	7.716179792337
0	6809	140.729397045928	0.655397045928
0	6820	140.921951369547	1.484951369547
0	6872	141.732795236459	0.385795236459
0	6984	143.766813829325	1.145813829325
0	7010	144.308252682273	0.414252682273
0	7030	144.695719990449	3.984719990449
0	7081	145.862362521635	0.694362521635
0	7145	147.593243599801	1.152243599801
0	7187	148.456770439289	5.199770439289
0	7219	149.249015769574	7.265015769574
0	7233	149.518697130271	1.804697130271
0	7236	149.536015338482	5.005015338482
0	7250	149.761427005363	0.773427005363
0	7281	150.554675963227	0.293675963227
0	7329	151.740259984371	0.205259984371
0	7385	152.968543045254	0.797543045254
0	7444	154.375445616393	3.477445616393
0	7461	154.644532031856	8.840532031856
0	7479	155.043807992572	0.962807992572
0	7513	155.733968302566	6.109968302566
0	7517	155.812911892587	7.461911892587
0	7534	156.146223754365	1.428223754365
0	7554	156.529137211719	1.174137211719
0	7570	156.77445671546	0.14645671546
0	7580	156.965275229553	4.157275229553
0	7632	158.078947758444	0.176947758444
0	7638	158.130794953119	4.685794953119
0	7664	158.767008863137	1.502008863137
0	7673	159.087751719479	12.009751719479
0	7701	159.652497705401	0.477497705401
0	7705	159.690360530585	3.699360530585
0	7724	159.977849283315	1.439849283315
0	7780	161.092282049708	1.280282049708
0	7836	162.187905189383	1.102905189383
0	7859	162.551004589888	0.193004589888
0	7867	162.770528459034	2.322528459034
0	7927	163.937561890455	0.942561890455
0	7953	164.502939844956	0.870939844956
0	7958	164.521773167817	2.799773167817
0	7986	165.075523862635	0.807523862635
0	7995	165.34236973883	0.43736973883
0	8013	165.82730889171	0.28530889171
0	8088	167.500720124694	1.321720124694
0	8094	167.552815903648	0.737815903648
0	8138	168.386795072763	0.297795072763
0	8168	169.154713353491	1.702713353491
0	8223	170.184633222558	0.185633222558
0	8326	172.129554217317	1.494554217317
0	8361	172.774529622758	0.865529622758
0	8423	173.860321286007	4.498321286007
0	8437	174.118395205567	1.572395205567
0	8468	174.51485232875	5.78985232875
0	8509	175.28263065518	4.01063065518
0	8525	175.606658423423	1.787658423423
0	8553	175.849928116294	0.757928116294
0	8567	176.06367769841	2.88167769841
0	8636	177.569323375754	1.203323375754
0	8650	177.696000374842	1.967000374842
0	8653	177.702139457989	0.063139457989
0	8667	177.91406112288	0.91206112288
0	8691	178.473539888179	4.017539888179
0	8702	178.706755964238	0.430755964238
0	8730	179.377556948424	0.464556948424
0	8784	180.519293253932	0.970293253932
0	8816	181.062416581378	0.239416581378
0	8848	181.723745752764	0.264745752764
0	8884	182.396843338361	0.300843338361
0	8926	183.188551793765	3.002551793765
0	8950	183.607938224701	0.238938224701
0	8955	183.803761132957	1.070761132957
0	9026	185.398157402867	1.392157402867
0	9030	185.427472722712	0.147472722712
0	9044	185.826037355999	1.183037355999
0	9082	186.461890096725	0.545890096725
0	9105	186.922294205911	0.369294205911
0	9135	187.537603689293	0.347603689293
0	9164	188.203183566284	0.377183566284
0	9190	188.977337785164	0.514337785164
0	9232	189.941906083289	0.841906083289
0	9264	190.496519280821	0.123519280821
0	9352	192.476902400427	0.829902400427
0	9429	194.08548766116	1.80248766116
0	9450	194.403132148507	3.393132148507
0	9477	194.950479160133	5.214479160133
0	9522	195.954308184861	0.487308184861
0	9552	196.297839021955	3.377839021955
0	9582	196.892482138156	3.335482138156
0	9588	196.979478515774	0.876478515774
0	9595	197.250018488862	2.420018488862
0	9616	197.488151807047	0.111151807047
0	9650	198.133774223391	1.393774223391
0	9679	198.864837268534	4.671837268534
0	9715	199.619643691173	1.605643691173
0	9774	200.602706303754	1.952706303754
0	9822	201.573484148808	1.649484148808
0	9855	202.119320042956	0.285320042956
0	9885	202.502077353824	1.942077353824
0	9963	203.832742480686	1.362742480686
0	9976	204.013167759775	2.816167759775
0	9988	204.219191724928	0.475191724928
0	10008	204.425383054113	5.138383054113
0	10037	205.105297330927	0.088297330927
0	10071	205.885848776553	0.231848776553
0	10117	206.787441244961	0.496441244961
0	10169	207.639988093631	0.712988093631
0	10189	208.023159969227	0.459159969227
0	10222	208.534399336903	0.333399336903
0	10278	209.752015706128	0.915015706128
0	10324	210.603513065492	0.492513065492
0	10362	211.385952173492	8.278952173492
0	10379	211.696798773168	0.312798773168
0	10408	212.212286625329	2.738286625329
0	10420	212.391745870279	1.643745870279
0	10443	212.665648625129	8.284648625129
0	10478	213.448397210919	1.427397210919
0	10491	213.588320978136	0.294320978136
0	10496	213.736386272191	1.078386272191
0	10639	216.739365724009	2.808365724009
0	10649	216.910870350148	1.706870350148
0	10704	217.939269433891	0.188269433891
0	10714	218.114579811934	3.546579811934
0	10747	218.620256242748	0.232256242748
0	10754	218.7394933985	2.2614933985
0	10771	219.099067461312	1.984067461312
0	10775	219.128920152406	0.103920152406
0	10823	220.509743902997	0.848743902997
0	10860	221.44691295011	1.14891295011
0	10900	222.063283228883	0.492283228883
0	10945	223.070371387562	7.229371387562
0	10983	223.875460536496	1.667460536496
0	11026	224.872413915781	3.937413915781
0	11032	224.969294248556	2.124294248556
0	11086	226.14463696411	0.75263696411
0	11159	227.449191779724	3.331191779724
0	11173	227.575840975482	0.910840975482
0	11226	228.663860184838	0.725860184838
0	11234	228.832749134882	5.350749134882
0	11241	228.848704654148	1.546704654148
0	11272	229.501745958996	4.746745958996
0	11302	229.937280103137	0.088280103137
0	11306	229.951885702194	3.923885702194
0	11312	230.08144993832	1.50644993832
0	11316	230.194624542133	0.982624542133
0	11365	231.637255100944	1.152255100944
0	11426	232.945517142448	1.186517142448
0	11441	233.120188651573	0.725188651573
0	11450	233.203066153338	2.081066153338
0	11477	233.750775113633	0.718775113633
0	11498	234.288534610264	0.619534610264
0	11535	235.024266979832	0.082266979832
0	11565	235.643437709027	0.064437709027
0	11584	236.137916980545	1.832916980545
0	11648	237.126363243315	0.910363243315
0	11731	238.62374313397	1.77174313397
0	11739	238.68792896606	1.19892896606
0	11809	239.990976483416	0.591976483416
0	11826	240.166006620122	1.404006620122
0	11837	240.437342765604	0.401342765604
0	11862	240.962371617635	2.836371617635
0	11899	241.632144987328	0.323144987328
0	11924	242.22531287634	1.55331287634
0	11961	243.213420695933	0.630420695933
0	11978	243.500117821344	0.281117821344
0	12015	244.020420681288	0.164420681288
0	12020	244.105367376808	2.159367376808
0	12073	245.177089662021	0.684089662021
0	12088	245.614917878311	0.485917878311
0	12164	247.270348909927	0.867348909927
0	12190	247.881870188923	0.205870188923
0	12220	248.855288473183	0.542288473183
0	12250	249.491936372949	0.541936372949
0	12299	250.508254987052	4.742254987052
0	12332	251.067260830891	0.844260830891
0	12402	252.405209746424	0.909209746424
0	12430	252.876762335671	0.106762335671
0	12452	253.351856561613	1.218856561613
0	12473	253.731696500736	6.692696500736
0	12494	254.118273355798	3.258273355798
0	12506	254.292938368164	4.706938368164
0	12513	254.343983366352	0.937983366352
0	12527	254.6601687823	0.6171687823
0	12543	254.763981848046	0.083981848046
0	12572	255.483097940831	0.166097940831
0	12615	256.768717390456	0.178717390457
0	12627	257.085382408438	1.132382408438
0	12641	257.455486841363	0.228486841364
0	12726	259.264415114961	0.127415114961
0	12737	259.612295066376	1.749295066376
0	12756	259.997796339281	1.497796339281
0	12775	260.573253878189	0.163253878189
0	12787	260.951594477845	1.178594477845
0	12852	262.282245779342	0.598245779342
0	12872	262.553861551133	1.506861551133
0	12890	262.873027494049	0.553027494049
0	12955	264.379601643948	0.149601643948
0	12980	264.723611730866	1.766611730866
0	12993	264.915287846894	1.321287846894
0	13033	265.731205992541	0.227205992541
0	13042	265.873676769667	1.006676769667
0	13064	266.346433883108	0.206433883108
0	13099	267.029097081957	0.252097081957
0	13134	267.810772302147	0.396772302147
0	13183	269.026128914328	0.339128914328
0	13248	270.481171054349	1.157171054349
0	13289	271.367807083954	0.770807083955
0	13308	271.581316978971	3.530316978971
0	13340	272.423032975941	1.189032975942
0	13356	272.607177103184	0.736177103185
0	13362	272.698958426613	0.191958426613
0	13369	272.760051733737	2.799051733737
0	13410	273.548996920211	0.404996920211
0	13487	275.255041086544	1.474041086544
0	13502	275.473915314233	0.419915314234
0	13558	276.6676421708	0.976642170801
0	13577	276.971238513297	0.643238513298
0	13626	278.236213609988	3.818213609988
0	13641	278.351253315783	1.387253315783
0	13699	279.585737440289	1.347737440289
0	13715	279.87716067466	0.36616067466
0	13746	280.666067943613	0.518067943613
0	13751	280.69930107566	3.09830107566
0	13805	281.767140148442	0.346140148442
0	13835	282.192778684102	3.318778684102
0	13844	282.357229496964	0.299229496964
0	13916	283.495800935812	2.710800935812
0	13935	283.881960037342	1.186960037342
0	13988	284.743937904031	0.775937904031
0	14071	286.318692657858	2.987692657858
0	14099	286.724227562767	0.209227562767
0	14145	287.676496823328	2.435496823328
0	14165	287.967785219773	0.179785219773
0	14176	288.11855233296	2.24055233296
0	14249	289.481966664639	0.419966664639
0	14307	290.634632981428	0.299632981428
0	14333	291.128315517825	3.976315517825
0	14369	291.754810078962	0.146810078962
0	14458	293.930618896655	1.048618896655
0	14480	294.293081133317	2.048081133317
0	14520	295.040987119306	5.342987119306
0	14536	295.338305321883	1.183305321883
0	14597	296.349353956422	2.830353956422
0	14605	296.442873967282	1.013873967282
0	14631	296.702879101614	1.910879101614
0	14638	296.773960083622	8.348960083622
0	14688	297.359111236087	0.657111236087
0	14707	297.865427728616	13.260427728616
0	14732	298.229074766052	0.254074766052
0	14797	299.626170901406	0.377170901406
0	14827	300.188967026422	2.849967026422
0	14862	301.017802234852	0.495802234852
0	14869	301.055706005758	2.443706005758
0	14916	301.924062282679	0.765062282679
0	14968	302.874990170072	2.988990170072
0	15012	303.606537281992	0.537537281992
0	15060	304.382249172266	2.586249172266
0	15206	307.068080233928	16.096080233928
0	15209	307.079971807031	11.014971807031
0	15226	307.333580919725	2.991580919725
0	15235	307.475427817496	5.043427817496
0	15256	307.806561204665	0.280561204665
0	15267	307.962539522734	1.073539522734
0	15274	308.084446827396	3.105446827396
0	15279	308.14772550919	1.89472550919
0	15303	308.27660194339	4.57060194339
0	15365	309.589940822417	0.790940822417
0	15376	309.933276982898	4.317276982898
0	15394	310.167490416611	0.094490416611
0	15404	310.398830765545	2.235830765545
0	15438	311.047758707407	1.611758707407
0	15460	311.370582148553	0.661582148553
0	15484	312.030113160593	0.684113160593
0	15491	312.176479129049	0.193479129049
0	15530	313.274802324858	0.654802324858
0	15557	313.97235048233	0.07935048233
0	15587	314.59097692663	1.33497692663
0	15626	315.44388479633	0.27788479633
0	15661	316.342066462962	0.539066462962
0	15720	317.445096870412	1.005096870412
0	15792	318.923024586127	0.573024586127
0	15810	319.149410562228	1.436410562228
0	15826	319.357438198815	0.370438198815
0	15857	319.84130914366	2.76530914366
0	15894	320.786154010232	0.526154010232
0	15944	322.168002613038	0.635002613038
0	15957	322.332274411457	1.435274411457
0	16000	323.330982408407	8.800982408407
0	16017	323.62485324426	1.45485324426
0	16031	323.889554424165	1.082554424165
0	16036	324.026945541462	0.583945541462
0	16071	324.626855246944	0.546855246944
0	16089	324.81233242201	0.09533242201
0	16098	324.979829872231	5.356829872231
0	16115	325.763260610699	0.410260610699
0	16157	326.73694569778	0.74694569778
0	16191	327.798880863402	0.534880863402
0	16208	328.002268231331	1.375268231331
0	16218	328.108872475431	0.208872475431
0	16268	329.329496419156	0.155496419156
0	16271	329.411108652856	0.874108652856
0	16317	330.81980067882	0.37280067882
0	16334	331.153216456573	0.069216456573
0	16348	331.626167135777	1.816167135777
0	16393	332.845752713379	0.488752713379
0	16405	333.066619182043	1.346619182043
0	16448	334.18583406187	0.55483406187
0	16467	334.772205684897	0.505205684897
0	16476	334.932349459205	1.938349459205
0	16518	336.052452475721	1.148452475721
0	16571	337.350665656134	0.536665656134
0	16598	337.966392660199	2.425392660199
0	16646	338.83481744267	2.65781744267
0	16771	341.702323851556	2.978323851556
0	16780	341.789751602609	3.702751602609
0	16822	342.488110960569	2.490110960569
0	16825	342.511608299015	1.877608299015
0	16966	344.958438561961	1.777438561961
0	16982	345.127650176155	7.676650176155
0	16987	345.133611636766	0.679611636766
0	17008	345.690116321579	1.872116321579
0	17034	346.199472009301	4.291472009301
0	17082	347.135859470651	7.774859470651
0	17088	347.262231654135	1.534231654135
0	17134	348.279080031576	1.278080031576
0	17142	348.414633939981	0.139633939981
0	17169	349.06323217899	7.79223217899
0	17172	349.066796377172	6.522796377172
0	17175	349.104124895204	1.466124895204
0	17186	349.30617850494	4.21517850494
0	17260	350.656168876728	4.291168876728
0	17273	350.86456477272	1.31656477272
0	17347	352.539732068718	1.081732068718
0	17382	353.188649351549	3.003649351549
0	17427	354.127363181615	3.306363181615
0	17442	354.450319028809	1.082319028809
0	17447	354.464748311687	2.369748311687
0	17492	355.071618634128	0.429618634128
0	17498	355.117706661687	1.112706661687
0	17543	356.035415887593	0.120415887593
0	17577	356.828454201244	4.096454201244
0	17617	357.549829700027	0.361829700027
0	17648	358.152741618355	1.600741618355
0	17672	358.556066939348	0.094066939348
0	17710	359.2936856892	4.0156856892
0	17745	359.790209314882	10.879209314882
0	17750	359.824301820778	0.089301820778
0	17761	359.983223554337	0.884223554337
0	17845	361.89079682969	4.06579682969
0	17866	362.262912443025	0.617912443025
0	17885	362.425842654488	1.416842654488
0	17916	363.108332056639	0.826332056639
0	17922	363.247611983163	2.875611983163
0	17980	364.358591557232	1.439591557232
0	17983	364.386042465666	0.194042465666
0	17987	364.418858620236	0.863858620236
0	18077	366.595369710094	0.493369710094
0	18112	367.258420768246	2.429420768246
0	18234	369.489109629631	1.477109629631
0	18239	369.629436606281	4.163436606281
0	18247	369.863824486898	3.124824486898
0	18269	370.265425332373	0.979425332373
0	18287	370.766742744311	0.207742744311
0	18310	371.388682842495	2.739682842495
0	18343	372.245961220049	4.869961220049
0	18361	372.492155786307	2.570155786307
0	18484	374.87496281642	1.76896281642
0	18506	375.092702984393	3.896702984393
0	18513	375.20116083716	0.18516083716
0	18517	375.233758633993	2.764758633993
0	18526	375.528868485211	3.695868485211
0	18573	376.605966332913	2.862966332913
0	18618	377.625754488701	1.972754488701
0	18622	377.701820963161	3.322820963161
0	18659	378.579672825389	1.653672825389
0	18673	378.898084054094	0.698084054094
0	18719	379.753056388204	3.464056388204
0	18724	379.796956044669	0.960956044669
0	18730	379.848518423578	0.375518423578
0	18752	380.250133135848	0.140133135848
0	18793	381.291651470158	0.545651470158
0	18809	381.515854244304	0.132854244304
0	18854	382.324309271794	4.761309271794
0	18884	382.985911192051	0.965911192051
0	18890	383.169181099616	0.513181099616
0	18904	383.57989816916	0.28689816916
0	18946	384.663678724982	0.733678724982
0	18995	385.861357088943	0.658357088943
0	19067	387.58677014088	1.74677014088
0	19120	388.727729094128	0.977729094128
0	19136	388.988615972405	1.875615972405
0	19261	391.111352643975	6.544352643975
0	19304	391.865443826862	3.478443826862
0	19324	392.092259559364	1.795259559364
0	19373	392.912862090564	3.252862090564
0	19390	393.229400046623	6.752400046623
0	19462	394.486829033801	0.369829033801
0	19475	394.695660005258	5.672660005258
0	19514	395.313408300874	2.469408300874
0	19532	395.471527542467	0.717527542467
0	19549	395.770181969314	0.380181969314
0	19586	396.251698115782	2.771698115782
0	19637	397.149009748967	0.485009748967
0	19653	397.358356584992	5.151356584992
0	19663	397.462727176413	5.892727176413
0	19693	398.052095933685	2.025095933685
0	19698	398.062662096645	0.125662096645
0	19706	398.131546377642	0.830546377642
0	19775	399.242968828507	0.668968828507
0	19801	399.715658591792	0.504658591792
0	19863	401.204195120485	10.270195120485
0	19939	402.766735426009	2.919735426009
0	20029	404.485654902752	0.817654902752
0	20070	405.12720397028	4.64320397028
0	20118	405.857066552251	4.736066552251
1	38	0.817298619172	0.204313113998
1	93	2.33351844489	0.160908913913
1	113	2.651943349358	0.157428614084
1	122	2.871639189128	0.173953210494
1	160	3.870278198631	0.292814120032
1	194	4.506282575938	0.20953628529
1	244	5.424904955833	0.127635558839
1	304	6.628387731393	0.329682221591
1	314	6.872506869845	0.510115186914
1	321	6.967072695745	0.189763917267
1	395	8.341965431122	0.239186894171
1	402	8.390034833082	0.227736187434
1	411	8.475823292702	0.212825119504
1	456	9.541652342835	0.136787616063
1	487	9.999562904382	0.146213328203
1	533	11.033666595318	0.140120802729
1	548	11.294609228766	0.164770081067
1	604	12.462596088671	0.358484337421
1	628	12.959887840241	0.220542458349
1	647	13.444831967623	0.358228106169
1	680	14.433469652713	0.231476413148
1	735	15.55571914717	0.163489196428
1	740	15.626184112526	0.219199155977
1	772	16.283099963818	0.129511315641
1	819	17.341424050179	0.149023151877
1	841	17.823492626976	0.226394924542
1	858	18.074205107849	0.231467271509
1	918	19.631380965638	0.153620700847
1	932	19.829682805891	0.166843122992
1	990	21.064678056182	0.14748105965
1	1010	21.370282651561	0.171594395774
1	1014	21.451878009274	0.234219938087
1	1020	21.571653630408	0.424311989185
1	1119	23.315425276499	0.336125130079
1	1124	23.403530966205	0.500496145958
1	1156	24.134343020338	0.300344885379
1	1171	24.243993126612	0.158834024096
1	1209	25.1784230625	0.171245891619
1	1233	25.607381004026	0.163863094886
1	1282	26.912356873891	0.243511952706
1	1384	29.084737440735	0.455832586033
1	1409	29.627776129734	0.126815097585
1	1466	30.580299635719	0.309721247148
1	1482	30.759955971744	0.176313012325
1	1487	30.80709069121	0.213905904195
1	1507	31.110964772124	0.355139339413
1	1529	31.731430958811	0.238856414197
1	1553	32.220428048823	0.258468787375
1	1576	32.785633893385	0.199420539952
1	1585	32.988431749285	0.15419509725
1	1607	33.398729918272	0.176027380658
1	1667	34.684523386475	0.347743689847
1	1680	34.984014420919	0.273742035258
1	1718	35.674719633209	0.245816856724
1	1727	35.876899880285	0.509893658324
1	1730	35.899703173745	0.271274855856
1	1770	36.929427936899	0.338542939606
1	1782	37.196102265096	0.16316688424
1	1861	38.784845292886	0.151798724167
1	1913	39.730661410171	0.189105771563
1	1943	40.255288777583	0.159559473258
1	1974	41.119117205335	0.221830505577
1	1982	41.214641108053	0.181589107007
1	2011	41.68479645926	0.135285275457
1	2017	41.86672784487	0.209981847259
1	2035	42.452077609592	0.205848198575
1	2073	43.398624838625	0.182054050112
1	2106	44.150511748411	0.135825061485
1	2144	45.249460706863	0.348084465722
1	2162	45.750560416532	0.202600685954
1	2182	45.999021189092	0.136154264362
1	2209	46.606440034074	0.169027565594
1	2225	46.879361858039	0.188939261772
1	2305	48.517418123029	0.196584792722
1	2358	49.446639856349	0.313985888658
1	2383	49.791389087301	0.178593287813
1	2457	51.122580707949	0.53057768388
1	2511	52.054076886993	0.171084184479
1	2608	54.045796519855	0.167054254265
1	2635	54.508364188617	0.131180005288
1	2659	54.710274427031	0.127462547042
1	2662	54.724149330492	0.145375950745
1	2706	55.661984646753	0.333196106044
1	2731	56.154199761436	0.388814886254
1	2755	56.710181177871	0.143588734155
1	2803	57.887912595595	0.211685363668
1	2839	58.429169281864	0.397727825591
1	2880	59.340669063794	0.214730857691
1	2898	59.702811328424	0.264560706377
1	2919	59.864152373246	0.16298164959
1	2933	60.152196871062	0.459386433385
1	2962	60.695522863582	0.146196204848
1	2987	61.264165081249	0.209890877541
1	3018	61.849539937858	0.151394276393
1	3031	62.128802486799	0.477040868053
1	3042	62.270593954411	0.154943765192
1	3046	62.305820925269	0.239706790285
1	3060	62.473730668207	0.131400236211
1	3100	63.45142164588	0.244778810365
1	3128	64.069329805799	0.145389773533
1	3179	65.06847374913	0.26178617243
1	3234	66.080414806009	0.352577001578
1	3269	66.659361093512	0.589558252637
1	3275	66.754504505696	0.156153490181
1	3295	67.113615171869	0.267631345558
1	3338	68.602560902838	0.214343192848
1	3379	69.441634751931	0.162969329381
1	3386	69.543066518015	0.157550465487
1	3416	70.410079802402	0.342169368087
1	3423	70.50087144011	0.146127776873
1	3473	71.609217969904	0.149864849367
1	3505	72.266954639674	0.151657012937
1	3561	73.228473285396	0.163235935152
1	3576	73.476257676107	0.189411860559
1	3586	73.63640616889	0.128192774519
1	3643	74.898748269955	0.172460647597
1	3650	74.998453627497	0.187875930976
1	3672	75.344771515176	0.14622879936
1	3723	76.576878456209	0.198445384273
1	3767	77.652840558137	0.251774267348
1	3770	77.672318645133	0.176020993325
1	3797	78.195275411632	0.145838876369
1	3817	78.515522890122	0.143620429957