file 1270016 1442262928                                         
version 2
run General-0-20150914-22:35:20-6403
attr configname General
attr datetime 20150914-22:35:20
attr experiment General
attr inifile omnetpp.ini
attr iterationvars ""
attr iterationvars2 $repetition=0
attr measurement ""
attr network CloudDataCenterTS
attr processid 6403
attr repetition 0
attr replication #0
attr resultdir results
attr runnumber 0
attr seedset 0

vector 0  CloudDataCenterTS.sink  responseTime_0  ETV
vector 1  CloudDataCenterTS.sink  delayTime_0  ETV
vector 2  CloudDataCenterTS.sink  queuingTime_0  ETV
vector 3  CloudDataCenterTS.sink  serviceTime_0  ETV
vector 4  CloudDataCenterTS.sink  responseTime_1  ETV
vector 5  CloudDataCenterTS.sink  delayTime_1  ETV
vector 6  CloudDataCenterTS.sink  queuingTime_1  ETV
vector 7  CloudDataCenterTS.sink  serviceTime_1  ETV
0	795 183819 36 132139 0.724976306026 3599.497557227546 4522 0.002491813425 12.088483727123 4434.207212425 9281.4108552935
1	184614 157151 36 132139 0.724976306026 3599.497557227546 4522 0.125593 0.125593 567.93154599996 71.328226656782
2	341765 136528 36 132139 0.724976306026 3599.497557227546 4522 0 6.4892576537 661.81130747858 930.81188893099
3	478293 157151 36 132139 0.724976306026 3599.497557227546 4522 0.628992 0.628992 2844.3018239998 1789.0430928813
4	635444 183597 47 132092 1.553978140538 3597.820623313611 4520 0.005717532995 13.953331163422 4572.1350836713 10017.789232477
5	819041 157001 47 132092 1.553978140538 3597.820623313611 4520 0.125593 0.125593 567.68035999996 71.296679453484
6	976042 136973 47 132092 1.553978140538 3597.820623313611 4520 0 6.720574526476 701.38673553628 1112.7409203221
7	1113015 157001 47 132092 1.553978140538 3597.820623313611 4520 0.628992 0.628992 2843.0438399998 1788.2518310092
