file 1930470 1442839712                                         
version 2
run General-4-20150921-14:48:29-7242
attr configname General
attr datetime 20150921-14:48:29
attr experiment General
attr inifile omnetpp.ini
attr iterationvars $0=94215
attr iterationvars2 "$0=94215, $repetition=0"
attr measurement $0=94215
attr network CloudDataCenterTS
attr processid 7242
attr repetition 0
attr replication #0
attr resultdir results
attr runnumber 4
attr seedset 4

vector 0  CloudDataCenterTS.sink  responseTime_0  ETV
vector 1  CloudDataCenterTS.sink  delayTime_0  ETV
vector 2  CloudDataCenterTS.sink  queuingTime_0  ETV
vector 3  CloudDataCenterTS.sink  serviceTime_0  ETV
0	608 504406 29 201350 1.688218945863 10798.311681338407 12147 -9.09342768785 29.134009320129 12730.484289361 78819.544866136
1	505014 500504 29 201350 1.688218945863 10798.311681338407 12147 6.009046e-06 3.578276909465 3847.7050276123 2492.9096085186
2	1005518 424284 29 201350 1.688218945863 10798.311681338407 12147 0 20.541821665155 8161.2478116495 28531.354006312
3	1429802 500668 29 201350 1.688218945863 10798.311681338407 12147 4.1657554e-05 9.872533097744 11454.146796132 21677.605679402
