file 266608 1441394280                                          
version 2
run General-0-20150904-21:17:20-4365
attr configname General
attr datetime 20150904-21:17:20
attr experiment General
attr inifile omnetpp.ini
attr iterationvars ""
attr iterationvars2 $repetition=0
attr measurement ""
attr network CloudDataCenterTS
attr processid 4365
attr repetition 0
attr replication #0
attr resultdir results
attr runnumber 0
attr seedset 0

vector 4  CloudDataCenterTS.sink  responseTime_1  ETV
vector 5  CloudDataCenterTS.sink  delayTime_1  ETV
vector 6  CloudDataCenterTS.sink  queuingTime_1  ETV
vector 7  CloudDataCenterTS.sink  serviceTime_1  ETV
vector 0  CloudDataCenterTS.sink  responseTime_0  ETV
vector 1  CloudDataCenterTS.sink  delayTime_0  ETV
vector 2  CloudDataCenterTS.sink  queuingTime_0  ETV
vector 3  CloudDataCenterTS.sink  serviceTime_0  ETV
0	795 35686 58 26547 1.071685240154 422.652386318645 909 0.026097310342 52.441582454599 4050.2415291078 47776.850821955
1	36481 35584 58 26547 1.071685240154 422.652386318645 909 0.009683800219 1.986177436339 366.99117091753 243.29085632269
2	72065 34299 58 26547 1.071685240154 422.652386318645 909 0 47.529734571818 3212.029423938 35797.687658906
3	106364 35577 58 26547 1.071685240154 422.652386318645 909 0.028573447353 7.958348573025 1794.1668476994 5237.4720183691
4	141941 31736 30 26527 0.445654450665 422.461017623181 809 0.006216240073 46.90970960041 3129.4611022473 34987.678201224
5	173677 31639 30 26527 0.445654450665 422.461017623181 809 0.010883001833 2.40593378294 335.96756814931 223.96588494295
6	205316 29628 30 26527 0.445654450665 422.461017623181 809 0 41.151051425371 2349.3585027453 24820.099542721
7	234944 31664 30 26527 0.445654450665 422.461017623181 809 0.067289646888 12.139744635082 1681.2132158726 5343.6197950857
