version 2
run General-0-20150915-12:07:33-12549
attr configname General
attr datetime 20150915-12:07:33
attr experiment General
attr inifile omnetpp.ini
attr iterationvars ""
attr iterationvars2 $repetition=0
attr measurement ""
attr network CloudDataCenterTS
attr processid 12549
attr repetition 0
attr replication #0
attr resultdir results
attr runnumber 0
attr seedset 0

vector 0  CloudDataCenterTS.sink  responseTime_0  ETV
vector 1  CloudDataCenterTS.sink  delayTime_0  ETV
vector 2  CloudDataCenterTS.sink  queuingTime_0  ETV
vector 3  CloudDataCenterTS.sink  serviceTime_0  ETV
vector 4  CloudDataCenterTS.sink  responseTime_1  ETV
vector 5  CloudDataCenterTS.sink  delayTime_1  ETV
vector 6  CloudDataCenterTS.sink  queuingTime_1  ETV
vector 7  CloudDataCenterTS.sink  serviceTime_1  ETV
0	68	2.50341157322	2.50341157322
0	131	8.202202251071	1.835202251071
0	171	10.851663034596	1.301173034596
0	297	18.349608686344	2.432108686344
0	387	22.485759467348	9.751759467348
0	390	22.501304397697	0.216804397697
0	395	22.76771162369	3.66671162369
0	537	30.208743207608	1.557243207608
0	615	33.132844279002	7.664844279002
0	644	34.243560482381	2.408560482381
0	771	39.753191336702	1.551191336702
0	780	40.761610316849	5.743110316849
0	802	42.206187886991	0.820687886991
0	899	47.854541758168	3.285541758168
0	932	49.698518246009	1.946018246009
0	1017	55.800064771669	4.864064771669
0	1114	59.960774102934	5.841274102934
0	1119	60.06700443536	2.76400443536
0	1240	64.872866041533	1.202866041533
0	1305	69.889688919306	3.036188919306
0	1362	72.314497276254	2.277497276254
0	1370	72.970485475207	12.483985475207
0	1502	78.698979826569	2.294979826569
0	1508	78.993101869264	5.772601869264
0	1553	80.52413166004	0.93663166004
0	1647	85.331097624917	2.560197624917
0	1675	86.711945686959	0.757545686959
0	1780	91.535891384988	2.397991384988
0	1832	93.218007358805	0.896607358805
0	1900	97.358097668298	1.853197668298
0	1949	100.743166770065	2.054766770065
0	1966	102.245612203257	0.373612203257
0	1996	105.547430537312	0.492430537312
0	2081	112.225876228457	3.986876228457
0	2084	112.275367999499	0.853367999499
0	2184	119.477859876028	1.688859876028
0	2244	122.316705410568	7.710705410568
0	2274	123.725758500467	2.752758500467
0	2296	125.285078242061	1.129078242061
0	2382	130.585982921227	3.245982921227
0	2411	131.848589134038	1.325589134038
0	2514	138.240090838769	4.533090838769
0	2523	138.826535091566	1.936535091567
0	2563	141.218281920213	1.144281920213
0	2645	145.73903240266	2.48203240266
0	2715	149.365813984158	2.924813984158
0	2757	152.051848788306	2.427848788306
0	2816	156.327015983075	3.519015983075
0	2903	160.789735767111	4.798735767111
0	3001	165.370122130556	3.012122130556
0	3004	165.538845161115	6.363845161115
0	3054	167.925346474405	2.383346474405
0	3140	171.575825562713	2.850825562713
0	3221	175.41754199291	3.50854199291
0	3236	176.129443823633	1.037443823633
0	3307	181.837416405331	0.378416405331
0	3321	182.779830161932	4.503830161932
0	3376	187.244609603497	2.601609603497
0	3490	192.527046832838	1.517046832838
0	3588	197.147461528868	2.954461528868
0	3600	197.455205164755	9.629205164755
0	3645	199.213088732059	1.836088732059
0	3753	204.419576225849	3.859576225849
0	3771	205.315659481027	1.571659481027
0	3816	207.890696119672	0.963696119672
0	3870	211.532161493103	1.421161493103
0	3942	214.77372834995	1.47972834995
0	3971	217.352948985257	0.874948985257
0	4044	221.015913922985	1.354913922985
0	4081	223.232154721677	0.387154721677
0	4205	229.505674802531	0.293674802531
0	4374	236.023435333916	9.995435333916
0	4415	237.204253227892	4.809253227892
0	4421	237.317186124444	1.738186124444
0	4441	239.750177668189	0.988177668189
0	4465	242.757906812128	0.811906812128
0	4692	251.102327372286	2.789327372286
0	4716	251.890917296207	6.761917296207
0	4742	254.35384329173	2.85784329173
0	4780	256.9104787083	2.2304787083
0	4833	259.229087068087	1.366087068087
0	4990	265.584030052175	4.537030052175
0	4995	265.695450173976	1.465450173976
0	5060	269.6007158618	2.1867158618
0	5144	275.059095272273	4.462095272274
0	5170	276.721445932138	2.940445932138
0	5246	280.527129010002	3.563129010002
0	5279	281.660901271255	1.512901271255
0	5452	289.446023436325	6.115023436325
0	5455	289.578020911745	3.063020911745
0	5601	296.542796028717	3.660796028717
0	5606	296.784596044465	0.719596044465
0	5609	297.180702229029	7.482702229029
0	5700	303.604203018626	4.355203018626
0	5715	304.045442092105	1.613442092105
0	5756	307.932744184948	2.316744184948
0	5860	313.709311194116	4.910311194116
0	6019	319.859906455542	4.693906455542
0	6026	319.976932907634	1.626932907634
0	6084	321.754153819231	9.771153819231
0	6108	322.443744906113	0.910744906113
0	6175	326.404579999743	1.687579999743
0	6227	329.304785833004	1.404785833004
0	6283	332.959683276771	1.875683276771
0	6347	337.728410204002	3.461410204002
0	6366	339.164335840264	1.713335840264
0	6403	342.243442797537	1.609442797537
0	6428	344.357294742365	0.539294742365
0	6463	349.242243912279	2.241243912279
0	6611	356.44869969353	6.26369969353
0	6632	357.225673940768	0.673673940768
0	6641	357.795849808116	4.427849808116
0	6706	362.321614858182	2.586614858182
0	6757	365.893705267549	2.974705267549
0	6778	367.196416416319	1.094416416319
0	6824	370.54373006556	1.25773006556
0	6869	373.131507466249	0.662507466249
0	6963	380.862228268267	5.209228268267
0	6969	381.961334840243	3.125334840243
0	7027	385.210771561066	3.190771561066
0	7086	387.407581748417	2.204581748417
0	7163	391.833062102757	3.446062102757
0	7214	393.942347725715	2.372347725715
0	7329	399.403617588264	4.649617588264
0	7336	399.781520240264	1.844520240264
0	7377	402.12887571272	1.00787571272
0	7422	405.745974819137	1.441974819137
0	7471	408.380800424844	0.892800424844
0	7684	419.148335366646	5.293335366646
0	7717	420.319417804073	3.281417804073
0	7728	420.549068047968	9.878068047968
0	7762	421.631025203802	1.409025203802
0	7810	423.904855474069	0.499855474069
0	7880	428.734591992467	2.145591992467
0	7909	430.620850245334	0.848850245334
0	7936	434.259660415908	1.303660415908
0	8033	440.8592966114	4.7202966114
0	8068	442.677599150333	3.354599150333
0	8106	445.540121522276	3.034121522276
0	8123	446.034309265192	0.344309265192
0	8171	449.845097835965	0.972097835965
0	8226	453.746996064331	1.689996064331
0	8323	459.57256628956	4.33256628956
0	8329	459.902624411895	1.478624411895
0	8438	466.152711164992	4.545711164992
0	8467	468.104043787659	3.313043787659
0	8482	468.678166642695	0.704166642695
0	8531	474.442323814925	3.284323814925
0	8546	475.562433607773	1.221433607773
0	8643	482.631819345515	1.923819345515
0	8672	484.514246759573	6.989246759573
0	8686	485.215193337108	1.323193337108
0	8720	488.125135314376	1.050135314376
0	8816	494.087818526793	3.828818526793
0	8832	496.374439444517	2.932439444517
0	8878	499.015007970057	2.389007970057
0	8926	503.379611657612	3.570611657612
0	8932	503.459389269334	0.466389269334
0	8987	509.125899612061	2.949899612061
0	9154	514.976357639232	5.616357639232
0	9227	517.651368882783	5.108368882783
0	9310	520.899978470011	5.172978470011
0	9313	521.667803958158	2.757803958159
0	9379	525.883138869846	0.606138869846
0	9388	528.348172082395	6.254172082395
0	9435	530.849946452199	2.388946452199
0	9469	533.502787696394	1.858787696394
0	9585	539.254766230244	4.426766230244
0	9615	541.318484374426	3.307484374427
0	9635	542.179475143384	0.984475143384
0	9699	547.152445472324	2.774445472324
0	9751	548.955344977149	1.393344977149
0	9878	555.239014328442	4.494014328442
0	9890	555.919775205142	1.990775205142
0	9916	557.318869760567	0.206869760568
0	10035	563.72594656395	0.24694656395
0	10094	567.350798977358	0.687798977358
0	10108	569.253355264126	8.957355264126
0	10119	569.929432100288	0.083432100288
0	10175	574.686615467442	1.656615467442
0	10213	577.372318635203	1.159318635203
0	10237	580.341536824367	0.944536824367
0	10296	584.19648541087	1.61648541087
0	10336	587.141568219347	1.377568219347
0	10424	591.501862632736	2.554862632736
0	10484	594.419300858425	2.288300858425
0	10544	597.110332914711	1.796332914711
0	10600	599.349111201496	0.851111201496
0	10744	605.461237839382	3.780237839382
0	10865	609.832904182804	4.967904182804
0	10868	610.080484513566	2.032484513566
0	10906	613.274160221026	2.042160221026
0	11034	618.43862556385	0.83962556385
0	11118	621.70023227806	7.28523227806
0	11128	622.1529157275	1.3709157275
0	11289	628.095033705175	0.946033705175
0	11371	631.224035732587	7.258035732587
0	11390	632.648708450564	2.315708450564
0	11457	637.582337256634	4.066337256634
0	11505	640.563366709503	3.863366709503
0	11530	642.358335048145	2.475335048145
0	11564	645.297031942289	2.230031942289
0	11587	646.96056157625	0.71056157625
0	11679	653.132546344125	3.698546344125
0	11773	657.939531996567	2.138531996567
0	11779	658.707070306458	6.090070306458
0	11886	663.624136125423	4.640136125423
0	11928	666.400496158629	1.049496158629
0	11940	667.289155143833	5.121155143833
0	12000	669.901644048493	1.366644048493
0	12100	674.155422171714	2.437422171714
0	12159	676.376089736508	1.474089736508
0	12243	680.501151547805	2.416151547805
0	12310	683.646422498738	2.377422498738
0	12338	684.985217891011	0.533217891011
0	12406	689.266526932854	1.630526932854
0	12440	691.881021094216	1.062021094216
0	12473	695.556077942004	1.553077942004
0	12504	698.283673266757	1.097673266757
0	12539	703.265293934918	2.895293934918
0	12568	705.993065834976	2.440065834976
0	12651	710.918112454862	0.998112454862
0	12664	711.504407397134	4.767407397134
0	12707	715.492874131676	2.388874131676
0	12793	720.534365905566	4.247365905566
0	12833	722.335926080335	2.864926080335
0	12908	725.617929537926	2.963929537926
0	13000	730.538093962114	1.517093962114
0	13006	731.093403116501	5.255403116501
0	13029	733.268342935299	1.063342935299
0	13044	735.93258867035	0.54458867035
0	13088	739.870260849347	1.298260849347
0	13107	742.37363826195	0.61863826195
0	13136	747.039441944284	2.100441944284
0	13205	752.406737336247	4.284737336247
0	13223	753.868338958326	2.562338958326
0	13310	758.603714151495	0.930714151495
0	13389	762.30686221525	7.81786221525
0	13571	770.151102229934	6.111102229934
0	13596	770.846609863735	9.990609863735
0	13622	771.543575933663	4.320575933663
0	13645	772.914298184495	2.507298184495
0	13663	774.165140021603	0.575140021603
0	13725	778.65997218628	1.88597218628
0	13762	781.633601624138	1.676601624138
0	13836	787.056811234752	3.915811234752
0	13864	788.756836184727	2.432836184727
0	13989	794.664525223885	1.973525223885
0	14110	799.364026500112	3.489026500112
0	14132	799.982924948708	10.474924948708
0	14172	802.437995300307	0.195995300307
0	14188	803.302796967997	4.244796967997
0	14216	806.261789110467	0.836789110467
0	14395	813.981238819744	5.373238819744
0	14441	815.604531669802	0.629531669802
0	14458	816.923486148479	5.131486148479
0	14496	821.035275350945	2.876275350945
0	14557	824.652017160024	0.126017160024
0	14596	826.701727133698	5.359727133698
0	14639	829.247465802198	1.538465802198
0	14701	832.272735145488	1.379735145488
0	14813	837.057018609933	2.981018609933
0	14854	838.656029623417	1.396029623417
0	14924	842.127553262874	1.684553262874
0	15139	849.89285497519	3.08285497519
0	15168	850.83139416023	0.83739416023
0	15212	852.52610935034	8.89910935034
0	15285	856.118666873539	2.941666873539
0	15319	857.736110169535	1.375110169535
0	15407	862.563632076056	3.019632076056
0	15426	863.104180582444	0.376180582444
0	15535	868.574450007182	2.663450007182
0	15588	871.684501517635	2.589501517635
0	15674	875.250678009682	2.972678009682
0	15777	879.018150190691	3.556150190691
0	15895	882.579465027504	0.750465027504
0	15963	885.219213980701	0.207213980701
0	16019	887.695999522377	9.050999522377
0	16156	892.9388133167	4.7428133167
0	16211	895.346493612396	0.783493612396
0	16378	901.317685590926	9.938685590926
0	16539	906.833022860473	5.903022860473
0	16648	911.267230846797	13.521230846797
0	16655	911.420595572882	0.940595572882
0	16671	911.892010097514	7.779010097514
0	16679	912.020715886312	4.723715886312
0	16770	917.51562891548	0.66862891548
0	16920	924.527649536548	1.313649536548
0	16926	924.783113419192	4.752113419192
0	16939	925.957870362336	12.293870362336
0	16966	927.404440416855	1.006440416855
0	17002	930.783454626952	1.202454626952
0	17038	934.445486730141	1.680486730141
0	17105	937.376254181199	1.428254181199
0	17167	941.320246558752	2.188246558752
0	17252	945.946910297218	3.631910297218
0	17310	948.411969581709	2.912969581709
0	17331	949.251106321448	0.569106321448
0	17449	955.957449510272	4.091449510272
0	17472	958.108475195504	3.059475195504
0	17493	959.048153711225	0.815153711225
0	17569	964.106512236167	2.690512236167
0	17697	969.234068355922	1.451068355922
0	17766	971.948261597452	7.348261597452
0	17778	972.663518298743	1.696518298743
0	17827	976.05656479557	1.90656479557
0	17880	979.409834343771	2.075834343771
0	17995	984.659825104311	4.142825104311
0	18011	985.638150455099	1.937150455099
0	18046	987.619428056955	0.735428056955
0	18066	990.566570457149	0.498570457149
0	18189	998.764305863054	5.513305863054
0	18234	1000.267820259194	0.649820259194
0	18262	1001.655022472172	5.220022472172
0	18324	1006.134922196648	3.334922196648
0	18378	1009.434770788115	3.444770788115
0	18396	1011.433103269048	2.263103269048
0	18518	1016.985672902644	4.635672902644
0	18610	1020.641676010332	5.101676010332
0	18658	1022.470011425367	3.750011425367
0	18675	1023.486390168797	1.586390168797
0	18716	1026.905501453358	1.815501453359
0	18747	1029.814115541937	1.544115541937
0	18789	1034.655847455268	3.205847455268
0	18793	1034.766541624188	0.126541624188
0	18849	1039.288433460075	1.468433460076
0	18971	1045.813438350128	4.813438350128
0	19015	1048.201912090518	4.011912090518
0	19104	1052.493253595971	1.943253595971
0	19124	1053.266327797186	5.896327797187
0	19158	1055.131829906084	1.391829906084
0	19380	1065.70934838031	5.609348380311
0	19407	1066.707845837696	3.417845837696
0	19466	1069.554731053136	12.634731053136
0	19566	1072.731590340105	3.071590340105
0	19603	1073.794866443761	0.954866443762
0	19608	1073.858478439163	7.388478439163
0	19749	1080.338234270652	1.128234270652
0	19753	1080.42950965831	4.40950965831
0	19864	1086.857812233847	4.467812233847
0	19872	1088.491236270755	2.921236270756
0	19891	1089.099735600393	0.339735600393
0	20020	1095.360685956786	0.240685956787
0	20028	1095.60553216275	3.66553216275
0	20093	1100.358150952023	2.048150952023
0	20143	1103.561323753166	2.071323753166
0	20306	1109.533662364773	4.863662364773
0	20369	1111.82300446439	0.78300446439
0	20415	1113.94489947624	6.084899476241
0	20468	1117.246737880556	3.026737880556
0	20504	1118.848789924358	1.438789924358
0	20613	1124.601086920923	4.011086920924
0	20637	1125.725441819385	1.955441819385
0	20740	1129.858622507228	2.898622507228
0	20814	1132.233396014139	2.093396014139
0	20829	1133.684886320358	0.354886320358
0	20883	1137.154231709787	0.644231709787
0	20945	1142.011121448195	2.321121448195
0	21014	1145.483838538823	2.603838538823
0	21043	1147.463171548189	1.403171548189
0	21075	1150.237600174637	0.997600174637
0	21189	1155.432540634489	3.002540634489
0	21227	1156.544718135861	0.934718135861
0	21363	1163.815779958815	5.025779958815
0	21380	1164.6038250317	2.6238250317
0	21556	1172.822024673708	4.482024673708
0	21559	1172.916136390896	7.756136390896
0	21644	1177.273802849305	5.743802849305
0	21647	1177.480611591794	2.770611591794
0	21683	1179.330345783691	1.440345783691
0	21742	1184.840024570032	3.760024570032
0	21795	1187.20375405691	2.94375405691
0	21851	1189.406579751931	1.966579751931
0	21893	1191.486740104297	0.856740104297
0	21941	1194.409450011147	0.599450011147
0	22050	1200.815978513243	0.635978513243
0	22089	1203.177974553838	6.177974553838
0	22108	1203.89002656378	0.53002656378
0	22244	1211.839965109383	5.289965109383
0	22324	1214.820531699289	1.910531699289
0	22332	1215.768105208993	6.038105208993
0	22372	1217.743304119049	1.643304119049
0	22424	1221.440420777882	2.160420777882
0	22472	1225.481041451858	3.021041451858
0	22517	1227.773919709652	2.123919709652
0	22620	1233.12162704292	4.29162704292
0	22703	1236.069486680856	4.059486680856
0	22798	1238.717926351199	0.337926351199
0	23007	1247.57249096801	6.01249096801
0	23110	1250.501658650809	5.751658650809
0	23125	1250.954271323741	3.024271323741
0	23174	1252.516007312833	1.406007312833
0	23184	1253.477186844054	18.277186844054
0	23214	1255.588031308281	1.288031308281
0	23256	1258.005840187027	0.525840187027
0	23322	1261.16812059873	0.49812059873
0	23506	1268.598187686084	1.568187686084
0	23521	1268.97361227529	5.12361227529
0	23698	1274.852116891226	4.632116891226
0	23726	1276.448805731959	3.048805731959
0	23788	1278.894507894928	2.314507894928
0	23854	1283.763618161121	0.813618161121
0	23859	1283.953633265649	4.183633265649
0	23957	1290.882626290703	4.752626290703
0	24036	1294.005671254563	1.505671254563
0	24098	1297.596360367611	1.916360367611
0	24107	1298.201370923759	8.881370923759
0	24181	1302.830634969284	0.780634969284
0	24204	1303.914896066492	5.044896066492
0	24277	1307.488386047546	2.258386047546
0	24327	1310.093858600201	1.673858600201
0	24439	1315.744664253708	4.144664253708
0	24461	1316.567139880348	1.787139880348
0	24556	1321.47622171529	3.50622171529
0	24601	1323.949941325706	2.799941325706
0	24710	1329.191082204356	1.671082204356
0	24715	1329.883955471779	5.543955471779
0	24770	1333.477599943019	2.777599943019
0	24895	1338.80592029698	4.91592029698
0	24910	1339.62138582127	2.55138582127
0	24973	1341.82973443901	1.57973443901
0	25053	1345.674815898882	2.234815898882
0	25174	1351.621799448197	5.001799448197
0	25186	1352.373997309719	2.573997309719
0	25235	1355.035433070184	2.045433070184
0	25274	1358.071738050278	1.901738050278
0	25351	1362.649364588579	0.109364588579
0	25370	1363.560558683174	4.210558683174
0	25471	1369.180949269405	3.460949269405
0	25503	1371.158611792115	2.258611792115
0	25536	1374.230381056346	2.140381056346
0	25563	1377.107598836075	1.837598836075
0	25585	1379.724010657538	1.274010657538
0	25677	1385.550644197509	3.910644197509
0	25690	1386.567346347947	1.747346347947
0	25769	1391.561653197353	3.551653197353
0	25795	1393.796196686848	2.606196686848
0	25831	1397.375949073489	3.005949073489
0	25868	1399.343232282793	1.783232282793
0	25888	1401.450713234442	0.710713234442
0	25929	1405.830893687346	1.910893687346
0	26023	1411.624397003924	1.334397003924
0	26050	1414.332767855814	7.222767855814
0	26069	1415.828361499023	2.358361499023
0	26096	1417.833075404086	1.173075404086
0	26159	1422.171612279108	2.331612279108
0	26259	1426.738410794654	3.718410794654
0	26364	1430.054481062342	0.664481062342
0	26376	1430.442640524428	4.232640524428
0	26440	1433.693596420763	1.123596420763
0	26488	1436.54668295726	0.78668295726
0	26649	1443.612264915782	1.492264915782
0	26758	1447.065941610981	1.755941610981
0	26761	1447.080600787377	8.140600787377
0	26820	1449.887143044859	1.397143044859
0	26841	1452.071452175684	0.391452175684
0	26918	1458.382986325429	3.522986325429
0	26938	1459.198820840346	1.158820840346
0	27189	1468.609391069387	7.379391069387
0	27212	1469.275503416404	4.865503416404
0	27335	1473.472180570014	2.692180570014
0	27361	1474.361446131463	6.771446131463
0	27489	1480.593743390261	6.633743390261
0	27515	1482.279758088995	1.949758088995
0	27542	1483.72550827262	0.21550827262
0	27566	1485.967956856406	8.827956856406
0	27609	1489.581818298272	2.891818298272
0	27654	1492.771902163078	2.891902163078
0	27720	1495.43289668807	2.37289668807
0	27763	1497.447359958528	1.207359958528
0	27957	1505.356010602009	2.746010602009
0	28074	1509.624453346574	10.194453346574
0	28079	1509.715507101262	3.925507101262
0	28086	1509.880059871917	0.900059871917
0	28145	1513.285582999214	1.125582999214
0	28182	1515.554113835179	0.204113835179
0	28275	1519.616145163107	1.086145163107
0	28449	1525.440116965941	0.540116965941
0	28590	1529.689151903589	1.609151903589
0	28611	1531.246962124171	9.536962124171
0	28813	1538.198978152272	3.748978152272
0	28908	1542.214746532269	1.404746532269
0	28933	1543.745907749363	12.485907749363
0	28969	1545.137523498531	1.137523498531
0	29051	1548.867438898483	11.237438898483
0	29055	1548.890565723396	1.710565723396
0	29314	1560.398216535818	3.668216535818
0	29321	1560.492913116393	6.942913116393
0	29332	1560.611841860699	10.251841860699
0	29400	1562.937494291672	3.027494291672
0	29422	1563.542059003738	0.442059003738
0	29577	1568.827901787539	2.547901787539
0	29629	1571.29373613754	1.83373613754
0	29819	1579.07634964005	3.24634964005
0	29829	1579.374586010841	6.724586010841
0	29925	1582.792633345689	0.592633345689
0	29948	1583.972826754192	4.952826754192
0	30004	1586.554432488032	1.174432488032
0	30048	1589.431979093277	0.861979093277
0	30087	1593.432719914573	1.682719914573
0	30120	1595.587796713302	0.657796713302
0	30200	1602.112870293306	3.992870293306
0	30404	1609.054141964816	1.384141964816
0	30414	1609.371997851234	8.071997851234
0	30526	1614.322465595659	0.292465595659
0	30574	1616.923783201076	6.073783201076
0	30600	1617.909966106977	13.429966106977
0	30705	1621.799128438776	4.579128438776
0	30758	1624.519197796053	0.939197796053
0	30852	1629.82074813971	9.42074813971
0	30884	1630.956816915826	4.186816915826
0	30899	1632.776611491384	2.826611491384
0	30995	1636.933924408797	3.803924408797
0	31041	1638.939945907623	2.619945907623
0	31199	1646.141319566537	3.461319566537
0	31216	1646.966013793282	7.466013793282
0	31313	1651.889067374817	6.019067374817
0	31319	1652.191526903147	3.141526903147
0	31472	1657.889443790488	5.649443790488
0	31524	1659.715759283604	4.295759283604
0	31527	1660.911359886053	2.311359886053
0	31594	1664.878491960275	3.088491960275
0	31638	1666.121055107292	1.151055107292
0	31739	1671.860800155876	0.520800155876
0	31744	1671.890187593739	3.740187593739
0	31845	1678.564418648392	4.044418648392
0	31851	1678.855116341795	1.155116341795
0	31886	1681.395814853391	0.505814853391
0	32036	1689.753431281816	5.683431281816
0	32315	1698.954001761429	2.154001761429
0	32359	1700.14221152438	12.89221152438
0	32415	1702.041335541862	11.601335541862
0	32572	1706.747070236668	3.577070236668
0	32586	1707.067468900307	13.447468900307
0	32632	1709.603527095542	9.613527095542
0	32672	1710.708859115851	1.168859115851
0	32683	1711.30838290663	4.95838290663
0	32722	1714.650409817724	1.930409817724
0	32750	1716.650881019766	0.740881019766
0	32814	1720.315495016812	1.225495016812
0	32980	1729.950423885475	4.490423885475
0	33042	1732.849106859692	1.029106859692
0	33103	1736.979360522338	14.709360522338
0	33209	1740.922802536287	2.732802536287
0	33436	1748.554016427643	19.914016427643
0	33542	1751.075011557003	16.065011557003
0	33583	1752.058266737452	10.688266737452
0	33618	1752.842227570059	1.922227570059
0	33810	1757.177296684768	3.067296684768
0	33944	1760.414765623396	12.674765623396
0	33978	1761.125418619472	16.565418619472
0	34014	1762.247445016327	4.957445016327
0	34030	1762.94779490153	2.47779490153
0	34176	1767.884156150813	4.224156150813
0	34185	1769.61473328583	2.77473328583
0	34202	1770.464800806647	0.444800806647
0	34375	1780.066709204136	0.486709204136
0	34447	1782.767432766171	6.377432766171
0	34472	1783.942290894795	1.182290894795
0	34484	1784.85402537718	11.64402537718
0	34594	1790.468540090369	4.528540090369
0	34603	1791.073579235244	1.943579235244
0	34734	1796.933324451626	1.443324451626
0	34898	1804.777726420035	2.917726420035
0	35066	1811.687907125267	0.277907125267
0	35080	1812.037045563238	6.997045563238
0	35087	1812.177932177922	3.947932177922
0	35123	1813.144264998813	20.834264998813
0	35188	1815.46756821139	16.78756821139
0	35204	1816.444991496534	1.854991496534
0	35248	1819.002786618661	1.222786618661
0	35371	1824.231852638727	0.091852638727
0	35385	1826.721411794288	5.761411794288
0	35525	1832.450135374361	5.120135374361
0	35589	1835.694674264498	2.004674264498
0	35592	1836.401094116234	5.891094116234
0	35623	1837.786968496699	0.906968496699
0	35734	1844.1716940549	0.9216940549
0	35849	1850.130420379777	3.700420379777
0	35868	1850.734852971778	10.674852971778
0	35900	1852.913153522059	0.113153522059
0	35997	1857.34069127539	7.73069127539
0	36028	1858.945777207865	2.965777207865
0	36071	1860.562177471869	1.402177471869
0	36124	1865.874982985782	3.524982985782
0	36140	1866.588985985107	1.058985985107
0	36209	1870.652870804472	1.942870804472
0	36231	1872.495006891377	0.595006891377
0	36291	1876.361676996351	1.281676996351
0	36412	1882.671457890996	1.221457890996
0	36421	1883.00780390598	4.74780390598
0	36571	1889.47658436264	4.84658436264
0	36633	1891.616658635466	3.806658635466
0	36692	1894.267863130279	3.267863130279
0	36762	1898.557881704597	1.197881704597
0	36773	1899.319689812576	5.139689812576
0	36805	1901.135366904317	0.585366904317
0	36902	1908.247678806175	1.327678806175
0	36916	1909.548236082189	5.818236082189
0	36957	1911.812034470232	1.712034470232
0	37011	1915.610895849704	2.330895849704
0	37048	1917.464337546921	0.994337546921
0	37089	1920.603675296606	0.953675296606
0	37149	1924.846568138267	2.016568138267
0	37215	1928.786682889903	2.766682889903
0	37304	1932.037937347447	2.837937347447
0	37338	1933.306192284782	0.926192284782
0	37448	1938.114618213772	2.544618213772
0	37507	1940.122407621659	1.372407621659
0	37680	1947.350747046739	2.230747046739
0	37697	1948.070157031982	6.140157031982
0	37735	1950.902712466701	2.602712466701
0	37751	1951.94679261569	0.46679261569
0	37792	1955.030926533097	0.360926533097
0	37841	1958.254860070313	0.404860070313
0	37901	1962.771715029978	1.741715029978
0	37928	1966.986044536129	2.766044536129
0	37982	1970.494976481939	3.094976481939
0	38056	1973.831756444081	3.241756444081
0	38101	1975.784301516427	2.014301516427
0	38138	1978.130576911878	1.180576911878
0	38212	1981.857687225642	1.717687225642
0	38381	1988.768909110102	2.268909110102
0	38417	1990.224927614963	6.904927614963
0	38437	1990.950532203942	1.260532203942
0	38469	1994.121934552616	1.251934552616
0	38581	2001.203191463277	5.153191463277
0	38634	2003.977890048709	4.737890048709
0	38660	2006.245230327945	3.825230327945
0	38682	2007.740966559366	2.140966559366
0	38730	2011.530870191311	2.740870191311
0	38763	2012.711354219369	0.741354219369
0	38912	2018.91691357534	3.76691357534
0	39044	2023.901914478159	5.561914478159
0	39125	2027.055330792628	5.535330792628
0	39128	2027.806647311562	3.106647311562
0	39235	2032.313923981911	4.423923981911
0	39241	2032.45780071071	1.38780071071
0	39266	2034.643981730168	0.383981730168
0	39299	2038.048019076527	0.608019076527
0	39363	2043.499170795414	2.879170795414
0	39378	2044.14790712832	0.33790712832
0	39506	2051.583912007608	1.413912007608
0	39607	2055.36111976034	8.37111976034
0	39619	2055.83871434045	2.47871434045
0	39659	2057.840826042437	1.300826042437
0	39709	2061.46259552444	1.742595524441
0	39839	2069.296425916117	3.206425916117
0	39968	2076.193707105986	3.733707105986
0	39989	2077.943134355675	2.303134355676
0	40046	2080.55792857881	17.647928578811
0	40186	2085.687287019563	6.867287019563
0	40293	2088.820103278366	19.550103278366
0	40339	2090.245475628756	1.875475628756
0	40346	2090.455109132109	8.445109132109
0	40531	2098.549833323924	13.359833323924
0	40538	2098.801363114149	4.06136311415
0	40550	2099.404917680884	7.844917680884
0	40612	2101.73783945305	0.62783945305
0	40796	2110.675336290474	6.385336290474
0	40802	2110.788467262153	12.858467262154
0	40877	2113.341917468538	5.861917468538
0	40957	2116.167046890258	5.507046890259
0	41143	2121.256804054905	7.416804054905
0	41147	2121.308827367377	4.278827367377
0	41243	2124.643008494601	1.253008494602
0	41278	2126.515717164371	6.305717164371
0	41299	2127.037211291948	0.457211291948
0	41351	2131.604476220318	1.844476220318
0	41475	2138.167724720127	2.037724720127
0	41478	2138.439659394801	5.499659394801
0	41580	2143.731883502919	1.24188350292
0	41586	2144.024022744192	4.714022744192
0	41652	2147.883490224335	2.203490224336
0	41667	2149.25427953062	0.39427953062
0	41807	2156.01947057775	0.78947057775
0	41851	2158.289508730816	6.249508730816
0	41904	2160.394860937657	1.984860937658
0	41946	2163.238575274672	1.638575274672
0	41985	2166.097620836272	1.317620836272
0	42047	2169.828198539958	1.868198539958
0	42100	2173.094523256223	1.944523256223
0	42219	2179.44644803141	5.11644803141
0	42235	2180.566345212777	3.056345212777
0	42333	2184.460368106636	3.760368106637
0	42370	2186.088127522661	2.208127522661
0	42442	2189.167921009974	2.107921009974
0	42526	2194.238808840276	3.988808840276
0	42542	2194.743211171063	1.313211171064
0	42598	2198.120291875829	1.510291875829
0	42656	2203.019227107144	3.219227107144
0	42707	2206.769692429977	3.789692429977
0	42710	2206.77708491144	0.617084911441
0	42747	2212.236343295529	2.886343295529
0	42954	2219.589824282774	3.879824282774
0	43124	2225.804879649431	3.724879649431
0	43143	2226.550561536488	7.650561536488
0	43191	2228.638629958284	0.188629958285
0	43213	2229.627195716183	17.097195716183
0	43217	2229.74163613643	4.47163613643
0	43268	2232.078985370315	0.448985370315
0	43361	2236.595924683151	1.775924683151
0	43490	2242.191377193066	4.191377193066
0	43550	2244.587539848052	3.407539848053
0	43594	2247.675281224816	0.125281224816
0	43597	2247.685310433837	3.315310433837
0	43637	2252.128394813861	1.398394813861
0	43683	2256.283986574206	2.363986574206
0	43709	2258.015434612177	0.915434612177
0	43755	2262.255340116289	1.975340116289
0	43823	2264.902853928968	1.432853928968
0	44078	2273.463107768712	0.443107768712
0	44087	2273.649257798568	3.819257798568
0	44112	2275.064143767947	8.414143767947
0	44150	2279.081931316483	2.881931316483
0	44207	2282.704843616819	3.324843616819
0	44241	2284.485899303085	1.915899303085
0	44383	2290.602282330907	4.852282330907
0	44568	2296.610940477309	7.670940477309
0	44594	2297.587278243929	2.287278243929
0	44597	2297.641195626288	5.521195626288
0	44613	2298.813690582421	0.323690582421
0	44720	2304.672179991753	3.002179991753
0	44814	2309.344302057088	4.494302057088
0	44881	2312.949238364612	4.909238364612
0	44892	2313.798898058307	2.578898058307
0	44930	2316.441932635638	2.041932635638
0	44987	2321.108984272192	0.338984272192