version 2
run General-0-20150918-19:23:11-8127
attr configname General
attr datetime 20150918-19:23:11
attr experiment General
attr inifile omnetpp.ini
attr iterationvars $0=1937
attr iterationvars2 "$0=1937, $repetition=0"
attr measurement $0=1937
attr network CloudDataCenterTS
attr processid 8127
attr repetition 0
attr replication #0
attr resultdir results
attr runnumber 0
attr seedset 0

vector 0  CloudDataCenterTS.sink  responseTime_0  ETV
vector 1  CloudDataCenterTS.sink  delayTime_0  ETV
vector 2  CloudDataCenterTS.sink  queuingTime_0  ETV
vector 3  CloudDataCenterTS.sink  serviceTime_0  ETV
vector 4  CloudDataCenterTS.sink  responseTime_1  ETV
vector 5  CloudDataCenterTS.sink  delayTime_1  ETV
vector 6  CloudDataCenterTS.sink  queuingTime_1  ETV
vector 7  CloudDataCenterTS.sink  serviceTime_1  ETV
0	34	0.606145646654	0.606145646654
0	61	1.580137934716	0.784263430151
0	139	3.484092761013	1.358052690918
0	145	3.529459872815	0.75397345447
0	157	3.680774548371	0.065855277126
0	161	3.783019683522	2.010138752564
0	216	5.144717165797	1.11821989831
0	283	7.39230205299	0.215634856828
0	345	9.376608576335	0.293167779996
0	381	10.333663501817	0.942942353326
0	407	10.997949506107	2.685343368235
0	445	11.889670713445	0.675102331024
0	494	13.382029399333	1.721942521861
0	506	13.591630176467	2.865618843353
0	538	14.265535044919	0.279097105753
0	571	15.160241057547	0.721701058157
0	576	15.192010810447	0.176146500251
0	648	18.521901438382	0.313090486133
0	678	19.46036600304	0.183482853642
0	728	20.770190869958	0.504541207974
0	736	20.940613699776	1.650065971948
0	760	21.45237360624	0.554387347861
0	801	22.451166980139	0.624702224859
0	806	22.493183194721	0.166275134109
0	815	22.758696970528	0.559845675227
0	852	23.856831397501	0.33939267677
0	902	24.927821263605	3.061380209267
0	909	24.980834693491	0.217909044213
0	915	25.019575257015	1.435839134802
0	937	25.503015819478	2.520461474503
0	1023	27.841421645241	0.592913638987
0	1090	30.658124984512	1.643875905845
0	1154	32.616380797241	0.484033949315
0	1161	32.74915003448	2.838310085028
0	1228	34.671033172428	0.857764119957
0	1249	35.782233795249	0.677055473978
0	1257	36.170960378791	0.514386067386
0	1276	37.219929682956	0.272025275276
0	1283	37.518671222553	0.929694030742
0	1303	38.173808049524	0.146583443189
0	1366	40.545128924593	0.410456713308
0	1414	42.179543969595	0.835198619756
0	1431	42.960794209552	2.438991906118
0	1459	43.893611383256	3.121727584845
0	1470	44.156365868431	0.587105861367
0	1556	46.94611152255	0.857569385403
0	1605	48.011593342481	1.213133278111
0	1652	49.120561627848	0.320115067953
0	1670	50.96624696664	0.15302767054
0	1726	52.514519293009	0.992717867224
0	1770	53.488490703506	2.41294209824
0	1841	55.105869924685	0.378810525036
0	1854	55.278756363919	2.447656574112
0	1859	55.318264939659	1.810002343353
0	1863	55.407613795593	2.323008300643
0	1899	56.882268715731	0.954238409541
0	1916	57.698372817156	0.380665447191
0	1954	58.623459898501	0.497772475137
0	1980	58.989811522763	0.262445112875
0	2021	60.085279299567	0.21677498682
0	2047	61.415881189566	0.516319634175
0	2056	61.896331645921	1.066387761603
0	2074	62.91792629533	0.880826234399
0	2108	64.165827077001	0.105403944884
0	2144	65.131145207451	0.504765761973
0	2192	66.300493816124	1.934465782193
0	2224	67.337166591005	0.257649203181
0	2231	67.497069090997	0.737126358045
0	2234	67.653563516354	4.847343654327
0	2309	71.187814568127	0.147947042185
0	2317	71.347868186363	2.102587117665
0	2343	72.197196270426	0.35226549766
0	2351	72.419452467759	0.741396336225
0	2388	73.709401003941	2.909456997435
0	2415	74.373337916088	1.217434775162
0	2445	75.668706009622	0.51876366742
0	2456	75.835057389998	0.180835114545
0	2523	78.512884880215	1.023399201823
0	2533	78.684056296134	1.163644326182
0	2561	79.850826242736	0.956071258364
0	2571	80.474642336761	0.264261094093
0	2590	80.757524487698	0.201623661322
0	2655	82.640750817903	0.623021631163
0	2677	83.24701212025	0.498383173266
0	2697	83.847513176985	2.160693871421
0	2703	83.986788434051	1.902967236618
0	2713	84.181716034133	1.020357220423
0	2721	84.342645868103	0.574007765774
0	2760	87.23872020359	0.487881425789
0	2816	89.43993939417	0.127524979324
0	2829	89.657244708401	1.42216344795
0	2845	90.004932696399	1.343315623912
0	2863	90.416153862124	0.268570931504
0	2869	90.575707776536	0.575349883229
0	2896	92.126982284349	0.124185736711
0	2899	92.363012409003	0.488796098641
0	3000	96.311742429197	0.361312614
0	3020	96.738466489424	0.180489528811
0	3046	97.116176043778	1.08116673682
0	3121	99.72347114559	0.558922382657
0	3155	100.516129728603	0.207673757498
0	3158	100.517166827767	0.310244940603
0	3178	100.922561054414	0.318203210061
0	3192	101.136975422712	1.406532118145
0	3223	101.617058924691	0.365526376295
0	3275	104.190096008874	1.023721202836
0	3290	104.484935869621	0.239634155084
0	3318	104.926580099284	0.308534194348
0	3338	105.331591742477	0.703810428201
0	3351	105.749277127195	1.203650332373
0	3416	107.963793971588	0.378383328739
0	3434	109.299762818057	2.44589751434
0	3439	109.40899692152	0.961918786876
0	3451	110.201006001351	0.223079447764
0	3469	111.10691539087	0.360735495416
0	3505	112.65984118106	0.726785359227
0	3525	113.56706678847	0.158590012211
0	3536	114.195870151384	2.401401150974
0	3556	115.17546870151	2.377474770248
0	3629	116.841143828432	1.197125839128
0	3656	117.457848429754	0.833648476842
0	3665	117.664129993303	1.067372140821
0	3682	118.209171891781	2.009494989319
0	3690	118.342082356465	2.796183889789
0	3705	118.720454910067	0.168987414208
0	3710	118.970157914267	1.031435863271
0	3790	121.703062581605	1.683102421848
0	3811	122.110428540289	2.947903483145
0	3834	122.544232077451	2.352733290322
0	3908	125.483313190699	0.408315413225
0	3958	126.606042060295	0.514274476087
0	3967	126.753941686694	0.81630829833
0	3996	127.295602137301	1.26142746991
0	4020	127.831671092832	1.378671647739
0	4034	128.168254103697	1.072879255524
0	4037	128.172342263775	1.109971400658
0	4049	128.368993484019	1.866630994232
0	4066	129.153164902728	0.226335488379
0	4069	129.248228091786	1.284991373726
0	4080	129.496871479033	3.314596424677
0	4087	129.960142051505	3.473508685492
0	4099	130.67402063581	4.840058084088
0	4102	130.691887115575	1.393895980425
0	4121	131.637349090618	0.319112585276
0	4130	132.041062291013	1.097887728789
0	4145	133.235103601036	0.298206029275
0	4194	135.112423225713	0.60012039846
0	4223	136.504471702079	3.088361435835
0	4239	137.141455188856	1.940638473559
0	4291	138.473983626161	1.092808474692
0	4311	139.467384397425	1.392919368439
0	4334	140.325786679619	3.39585032664
0	4343	140.70886306446	3.062905639653
0	4352	141.739893768119	0.192573033231
0	4367	142.133756361359	0.299526531088
0	4423	144.367900146999	0.191624737267
0	4452	145.210814301577	0.716484346655
0	4471	146.024852880777	1.061727234216
0	4474	146.036686121556	1.981242108086
0	4496	146.642106400073	0.297521673664
0	4521	147.22541728494	0.25804131056
0	4552	148.28232510222	1.586419094269
0	4691	151.227239234618	0.81720519519
0	4701	151.367519470854	1.46921177124
0	4707	151.452370798565	1.627569476369
0	4719	151.65460061423	1.409859587122
0	4733	151.960020483602	1.409241288746
0	4760	152.64361111453	1.987435789762
0	4875	156.402137995295	0.260127229449
0	4890	156.867005011346	1.896807910438
0	4896	156.915633714863	2.231005534458
0	4940	158.259273254704	4.37778184622
0	4965	158.76596247316	3.090816050877
0	4987	159.252731883142	1.966547583422
0	4996	159.648415922249	2.762026895006
0	5015	161.353727282643	0.652618080492
0	5041	162.247592741021	0.405440204617
0	5077	163.91304750829	0.145564937507
0	5100	164.576248155705	1.603638420987
0	5103	164.619239319106	0.067200051406
0	5111	165.001204919464	0.092999870201
0	5125	165.697539192322	0.323037116622
0	5241	169.054886088875	0.892501653124
0	5270	169.748689898547	1.8217113293
0	5284	169.914407156133	0.121957789657
0	5308	171.776533107859	3.271973980493
0	5326	172.907723167336	0.652629531455
0	5361	174.076290234434	0.665721869807
0	5372	174.224834693663	0.128504375722
0	5436	177.008864322746	0.292888746632
0	5464	178.100015094981	4.587144949345
0	5502	178.957254342909	0.758551156933
0	5508	179.027200008817	3.287516455671
0	5621	181.387748239891	0.796551437235
0	5658	182.146729119494	4.466253781621
0	5720	183.552396650071	3.299640980232
0	5768	184.248462466841	0.452472903494
0	5771	184.250104001119	0.61937560833
0	5783	184.435756300308	0.764606329866
0	5791	184.605540596471	0.872574477381
0	5852	186.571564501779	0.392506665241
0	5867	186.967195519584	0.312928244261
0	5904	188.120412228747	0.310605771318
0	5939	189.107418943985	0.363032070208
0	5967	189.844598575627	2.100085713843
0	5995	190.526097937226	0.779148655121
0	6107	195.471584674305	3.090503996257
0	6268	200.347409261852	0.732860131006
0	6273	200.357683077409	0.618340854303
0	6307	201.429223048773	0.685853691384
0	6332	202.542745716743	2.690230161245
0	6347	203.823429457876	0.333808230263
0	6353	203.980915344563	0.253628245844
0	6364	204.898773451377	0.01651181909
0	6425	207.09689394799	0.23367701958
0	6437	207.437521074395	0.513986122208
0	6467	208.665983774705	0.396328005739
0	6500	210.491262420457	2.931676997146
0	6551	212.047614094006	0.358821822354
0	6596	213.065972018961	0.896887933501
0	6609	213.365110005495	0.726417887907
0	6651	214.592418073086	1.881109897393
0	6665	214.795793130192	0.356225581532
0	6688	215.259516901405	0.183835741099
0	6704	215.49219579515	0.53280630161
0	6726	216.306119757583	0.298251856712
0	6773	219.010444824084	0.801760048848
0	6796	220.153800285152	0.353913246574
0	6833	220.954654824062	0.213224590251
0	6841	221.119200323414	1.107892109858
0	6872	221.992237158432	0.247282536723
0	6907	222.449766242008	0.383813962407
0	6945	224.458648804099	0.452834764908
0	6955	225.548191468723	0.294359198249
0	6990	226.583633597314	0.030616515469
0	7025	227.295748945988	1.290644301844
0	7125	229.404575233924	1.96413762547
0	7134	229.454784624319	2.726945542441
0	7154	230.193883895076	0.251288304083
0	7178	230.489712414403	0.244788685362
0	7183	230.57532721513	3.348971801339
0	7217	231.190801864664	0.224219387932
0	7269	232.811063068017	0.905461987762
0	7298	234.441034300626	0.314367883017
0	7309	234.806060147906	2.815587656612
0	7383	237.549026169473	0.029429037223
0	7409	238.735286974359	0.660658116795
0	7424	239.290217608419	0.832520683771
0	7551	243.641016976073	0.922294782557
0	7559	243.811679457688	3.396564140801
0	7640	245.484542920994	0.952252703009
0	7644	245.512372760427	1.224012212303
0	7710	247.46960127343	0.206460051886
0	7734	247.952950268574	0.289871818521
0	7756	248.492546221089	0.866713863339
0	7772	248.746880928275	1.653796795523
0	7804	249.591046498314	1.405538804914
0	7829	250.027392909409	0.028114659718
0	7907	251.935754884111	3.416051775751
0	7920	252.394940156645	0.513907835768
0	7926	252.515122308966	1.855370164994
0	7961	253.551785086899	1.062721140259
0	7976	253.722813950442	0.08329246261
0	7990	254.136314961573	0.377528603766
0	8020	254.686974152734	0.539554228696
0	8048	255.292391871482	1.741774608546
0	8059	255.519538555841	0.076661967877
0	8075	255.934570154771	0.425088429567
0	8089	256.122644415567	0.13707002545
0	8097	256.430186847262	0.68719141602
0	8127	258.649178577458	1.039593743546
0	8154	259.315771480573	0.775513090038
0	8258	261.710366517239	1.242803629452
0	8275	262.217866555508	0.645856862736
0	8311	263.563818532854	0.670218733902
0	8336	263.989746402234	0.371223166974
0	8350	264.554321950805	0.930632429441
0	8377	265.285995280053	0.477619608035
0	8411	267.470123175645	0.798361519832
0	8419	267.855602264447	0.739122153679
0	8438	269.937945241183	0.14120773
0	8454	270.355873662516	0.671470831984
0	8531	272.320278956477	1.642633828019
0	8566	272.952731992998	0.449942224192
0	8594	273.203841527006	0.163003000443
0	8610	273.64851960305	0.917483211046
0	8620	273.823493896277	1.715629419562
0	8660	275.172258656406	0.815605898058
0	8719	276.452883084348	0.350118511609
0	8723	276.525540314251	0.862547644398
0	8728	276.59578119303	0.886499017259
0	8765	278.060086955277	0.515538191606
0	8804	280.300141928306	3.358404072639
0	8830	281.346817103886	0.167109686423
0	8853	282.079858079092	3.094917710414
0	8885	283.940008835559	2.452934145344
0	8897	284.202567479529	8.692150957815
0	8907	284.35119141703	0.11812448399
0	8925	284.970422006816	0.795913922098
0	8979	286.356251910739	2.361454885264
0	9086	289.421683564242	1.252010501388
0	9119	290.525180089279	1.402453600248
0	9166	292.963410762266	0.517122146833
0	9177	293.193515028115	0.293971301243
0	9199	293.662853319183	0.362433378665
0	9302	295.879829447245	1.357200317774
0	9327	296.696604970032	1.764536527892
0	9349	297.496740012618	0.532518357462
0	9367	297.970229804503	3.950513091711
0	9397	299.068275202704	0.868802681918
0	9400	299.085402805605	2.464856535441
0	9405	299.146527309533	6.410602996172
0	9415	299.496952742842	1.951523784574
0	9439	300.874631000531	0.139424265147
0	9468	301.775550764934	1.654624308166
0	9497	302.725117411697	1.600810617909
0	9513	303.298807006421	1.498797896873
0	9518	303.664510696595	1.535839529378
0	9538	304.933502720585	0.476105666188
0	9552	305.472258726464	0.089285931455
0	9561	305.780385758396	0.617136708889
0	9597	307.272407644648	0.761259362755
0	9605	307.366965564813	1.218472295961
0	9648	308.34748999597	0.942141723863
0	9702	310.009115834978	0.048886773131
0	9707	310.205788170899	0.233313270209
0	9721	310.555915063816	0.193607916609
0	9787	313.296007094584	1.598656863051
0	9821	314.25760780043	0.531069584074
0	9830	314.438767457937	0.211165807917
0	9852	315.026303417443	2.198413155783
0	9858	315.221168030161	1.038538048079
0	9870	316.608072667072	0.264187169014
0	9954	320.244454717048	0.828480578766
0	9975	321.398373849894	0.449393305841
0	9996	322.880566887384	0.910983858677
0	10034	324.461046318288	0.340849900769
0	10071	325.684444046936	0.459554026058
0	10126	327.158032727282	1.148588998625
0	10146	327.34668141592	1.781691811898
0	10172	327.769213528691	0.573053932004
0	10200	328.25507762403	2.381790468745
0	10203	328.263494608075	0.505012586422
0	10206	328.269357342813	1.0977698919
0	10224	328.596185623687	1.819297971993
0	10286	330.704828527742	6.514109745631
0	10344	332.057160496093	0.818247054076
0	10351	332.194414728251	8.338682872648
0	10376	332.685138296195	0.903845160456
0	10381	332.698424082901	0.118502116726
0	10413	333.656581489073	0.052484743897
0	10446	336.577157494121	0.131459793101
0	10480	337.676263946005	0.787650267186
0	10483	337.711441030293	1.130235501634
0	10501	338.099390963656	0.38307546308
0	10538	339.188390534714	1.257834112332
0	10561	340.102403991355	1.640730049858
0	10612	344.748076794748	0.112205780295
0	10622	345.265466406904	0.524231900075
0	10653	346.912786892825	0.74865812452
0	10744	350.517146764804	1.23961531603
0	10750	350.844207690079	1.388077198241
0	10814	354.101189443364	0.438082331236
0	10863	355.59208056647	0.673418372445
0	10879	356.80233337214	2.114423015091
0	10888	357.238887270628	1.953250198721
0	10955	359.79224417859	0.321956796214
0	10997	360.650575116222	1.043297942292
0	11018	360.887614763741	0.405206004237
0	11047	361.711534128246	1.00734171941
0	11079	363.40279708735	0.456430021406
0	11123	364.596083755105	0.095682910588
0	11136	364.781351662289	0.53097510334
0	11166	365.233941658573	0.062593077764
0	11180	365.407769376119	0.511503109068
0	11312	368.874609411455	2.235175917814
0	11341	369.641547351877	0.31019488391
0	11417	372.781536284641	1.217990374071
0	11467	374.297187271073	0.885934740189
0	11519	375.822968444891	1.194436404604
0	11560	378.031660538531	0.50948852669
0	11613	381.36901302229	1.95382617699
0	11676	382.714778601391	0.830779389675
0	11680	382.776134272792	1.606188737785
0	11691	383.037938570495	1.153878786984
0	11703	383.306728415117	1.746158878819
0	11727	383.912595283774	0.648777024456
0	11765	384.813006910464	1.887065228058
0	11817	385.48080283278	2.062050257775
0	11831	385.853250533176	2.065565403416
0	11836	386.033783065056	1.826147224025
0	11855	386.513464238387	0.062588735516
0	11858	386.522996704689	0.189560154394
0	11884	387.48433121888	0.335390300912
0	11891	387.873906400341	2.695015095341
0	11894	388.389448883637	2.046592926783
0	12022	391.602268419803	2.969380034809
0	12058	392.27463194812	0.134484275664
0	12119	393.672285859328	0.465363729829
0	12122	393.672934795754	4.317547742091
0	12129	393.763135058536	1.069856164961
0	12187	394.647773045688	0.595538002359
0	12221	395.814071661349	1.986169070467
0	12249	396.859911859388	2.166757505161
0	12270	397.741758113196	0.994257331081
0	12368	400.499233048216	0.640231458422
0	12381	400.919092576077	6.505524876874
0	12435	402.482600235885	6.238674203244
0	12442	402.87007286072	0.530072994922
0	12477	404.613048598283	0.187662174993
0	12501	405.095883230722	1.724689184202
0	12512	405.23779999419	0.848810660785
0	12554	406.328320621279	0.432701003043
0	12572	406.704205962003	0.450980735232
0	12589	406.95656190234	0.444733405829
0	12612	407.836882153491	0.200736061373
0	12765	412.981651536904	1.271544992364
0	12784	413.811452040274	1.936040949837
0	12865	417.990944851943	0.576094412657
0	12927	420.761471814526	2.10227629739
0	12957	422.481403951177	0.423754067739
0	12979	423.04813257288	0.492893482959
0	12991	424.000822971271	1.864292104809
0	13012	424.969860780845	0.403700418832
0	13048	427.805070857386	0.793798299303
0	13062	428.294851764058	0.5637086802
0	13069	428.57279304863	0.591482335433
0	13093	430.280397059802	0.566045920462
0	13109	430.49289620305	0.462043538204
0	13149	431.602647259286	1.157923805955
0	13159	431.742599373148	1.413260862793
0	13197	432.571835518028	0.47415134588
0	13243	434.128040550452	0.217430775701
0	13286	435.187990906846	5.744822877047
0	13296	435.319290813137	3.690111593799
0	13331	436.51290163781	3.464070952033
0	13352	437.611239102542	3.236549003205
0	13360	437.889479190127	7.532689082101
0	13393	438.922959369591	0.880239600959
0	13397	439.081868941663	3.029336053643
0	13424	439.698111851538	0.576669037192
0	13479	442.125335852314	0.101007419968
0	13512	442.927318414895	0.862977760306
0	13515	442.948124401287	2.335560870754
0	13552	444.256551609555	0.126124426231
0	13588	445.468332832173	0.816304244017
0	13612	446.572172274263	2.257651416256
0	13650	448.345288343457	0.319649949342
0	13708	449.401298342648	0.509577888612
0	13720	449.764185968601	1.327445016053
0	13779	451.688420546276	0.364564817299
0	13809	452.607027615264	0.249720241549
0	13824	453.188818179701	0.080056327337
0	13840	453.464360439202	0.059273919447
0	13864	454.064941406949	0.814263760911
0	13930	456.890424163678	0.618824046613
0	13947	457.708579346743	0.126186623642
0	13974	458.727161386554	2.388225793188
0	13977	458.788264826439	0.700680385743
0	14000	459.851168975292	0.776492852717
0	14033	460.696988070849	0.24652209391
0	14057	461.214114250012	1.069285947799
0	14066	461.316464537454	0.398473624306
0	14094	461.832637040968	0.298983821312
0	14104	461.926662928484	0.502811265434
0	14135	464.4188689266	0.500352063698
0	14153	465.006470551879	0.228381784148
0	14188	466.825855438944	1.329691230218
0	14285	468.84471057075	1.665431201622
0	14301	469.261281494717	0.307072183045
0	14330	470.075326013784	2.677086476264
0	14341	470.507968323687	4.076469799666
0	14385	473.081038675299	0.606500547799
0	14406	473.638149158056	0.664792141534
0	14412	473.743277377795	0.602530942868
0	14415	473.787137780334	0.495057257829
0	14490	476.163066306018	0.356817475461
0	14538	477.467508703695	2.927530297603
0	14624	479.894266193651	0.155740941768
0	14640	480.182545916428	0.578360722286
0	14646	480.253222008244	0.212973895146
0	14674	481.019054957147	1.237242124091
0	14722	483.524205469517	1.670011360848
0	14734	483.924323939904	0.470250997136
0	14815	487.89764612054	0.288923917526
0	14824	488.150327864294	0.76063250575
0	14839	489.316807672056	0.148058916019
0	14918	492.445284598854	1.147920346695
0	14925	492.504453009035	1.044158267513
0	14941	492.905502943269	0.628121381037
0	15003	496.066130279884	1.146038018412
0	15011	496.434689048345	1.591290243903
0	15026	496.899118652695	1.303785176107
0	15041	497.568174461315	0.239308441233
0	15068	498.56980520625	0.868526211814
0	15081	498.760382706713	0.336270460572
0	15093	499.139855528976	0.453784503266
0	15096	499.17985305378	0.606733889537
0	15108	499.538030947127	0.241562552691
0	15162	500.876686071231	0.279133462085
0	15242	502.25462167591	0.197099894774
0	15251	502.376051536446	1.024645418009
0	15284	503.109999243427	0.366151274471
0	15294	503.266599126745	3.087571329498
0	15347	504.17943927702	0.863097679411
0	15358	504.304523234232	2.724491378214
0	15429	505.763067675187	0.857316971314
0	15479	507.225898030259	6.018856699421
0	15502	507.641523159894	2.775763859671
0	15516	507.853787162851	0.194762030625
0	15567	509.346931996246	3.04968148514
0	15584	509.911452513736	1.365312678544
0	15692	515.715765680992	0.649460159774
0	15711	516.366006246062	0.404675216272
0	15762	518.067256234442	2.802613951049
0	15838	520.7705671758	0.13667600392
0	15852	521.01051850742	0.176195906095
0	15901	522.748327057577	0.720551673331
0	15924	524.031146776679	1.083008230704
0	15949	525.32640143136	0.169973483371
0	15972	527.972620769475	0.055119758973
0	15999	528.534779894503	1.511667275235
0	16043	530.846657070254	0.14702744896
0	16114	534.900678892971	1.183025246818
0	16169	537.51230780992	0.164729060763
0	16190	538.251844738864	1.070434978966
0	16195	538.32020593529	0.221183019151
0	16265	540.568716791963	0.150981392152
0	16276	540.703990163985	2.327877928496
0	16296	541.349420631814	0.371652248698
0	16399	544.697083771176	2.201597018572
0	16427	545.509675862383	1.109047262088
0	16472	547.359185948991	0.354508914283
0	16482	547.592808568426	0.023803427987
0	16499	547.941019778997	0.329830934474
0	16508	548.166607055943	0.275496572303
0	16518	548.405875369535	0.100620334213
0	16546	549.881656730271	0.117683857917
0	16588	551.138091610971	0.094416624463
0	16633	552.193055765981	0.319743648284
0	16652	552.666911555241	1.801384893185
0	16655	552.678166883901	1.349984665864
0	16702	554.783991600132	0.601319117245
0	16738	556.396954535777	0.358443669633
0	16743	556.494442579488	0.103818761977
0	16751	556.927171229774	0.540264083604
0	16803	559.212917430383	0.95746247376
0	16850	560.827869442882	0.412872436425
0	16880	562.766489766725	0.06719129753
0	16899	563.066893710741	0.185183780236
0	16953	564.179349135473	0.640721036328
0	16998	565.241369695583	0.957830881957
0	17052	568.384347272057	0.240683773155
0	17083	569.106367747385	1.076210099777
0	17094	569.340397870339	0.88136951548
0	17167	571.527882692753	1.197016009153
0	17176	571.830881814077	0.304042249031
0	17186	572.112882501705	0.3296255915
0	17195	572.798458335407	3.124035428741
0	17261	576.48269715771	1.053875860541
0	17298	577.406452714747	1.005081416005
0	17347	579.446230465669	1.81956890865
0	17394	580.883604375179	1.320652655065
0	17460	582.597723703567	1.579473476392
0	17514	584.199993357172	2.318625793209
0	17534	584.455106401204	4.967525053718
0	17537	584.494409670713	3.016345454755
0	17544	584.532645342866	1.595461276932
0	17552	584.694259246707	2.968657115781
0	17565	584.937780374219	0.33468468419
0	17634	588.299694176666	0.733519314442
0	17653	589.038535814146	0.379872523058
0	17661	589.239937941303	1.279453259792
0	17664	589.279592442081	1.729280978041
0	17685	590.187518353704	0.709581460828
0	17792	596.1257639847	0.964957901716
0	17816	596.766790095654	3.210790017158
0	17832	596.928017860611	0.821736885217
0	17835	596.931373101645	1.757161447641
0	17850	597.39454996452	0.181784863135
0	17921	599.526729128016	2.7155051747
0	17927	599.700300168714	1.676363906925
0	17948	600.3262165066	0.372642070572
0	17975	601.04748103019	4.524768065019
0	18022	602.40448717792	7.91265200612
0	18029	602.502529737031	1.844143077464
0	18067	603.523441498657	2.383936914201
0	18070	603.595481698239	6.724015181967
0	18077	603.715993533838	2.994135898339
0	18104	604.633989708885	3.287016941001
0	18111	604.769821904304	1.584094622929
0	18159	605.730619977616	3.018359875557
0	18162	605.746641451356	3.203239368154
0	18186	606.325365117981	2.422162241729
0	18202	606.64979517255	1.860032269267
0	18214	606.966873684125	1.201242682462
0	18231	607.301787414597	0.10321479419
0	18241	607.438639915079	0.963989093427
0	18246	607.48270823712	2.305189593775
0	18250	607.503507281477	0.180343879887
0	18282	608.145962969769	4.003636532391
0	18300	608.490885220374	0.512368557522
0	18316	609.166090998102	0.931206027153
0	18333	609.873280170311	0.479074148565
0	18358	610.933248205492	0.60211092888
0	18361	610.986757339619	0.122659985951
0	18402	612.731660907102	1.203642744852
0	18407	612.789314612128	0.089650251414
0	18453	615.26246940252	3.892089347548
0	18461	615.455622212441	3.010852158198
0	18491	616.127680064568	0.241653363502
0	18502	616.197753227281	0.463607840981
0	18529	617.06973766076	0.890294970914
0	18549	617.955798366674	1.657131630809
0	18622	620.644286067594	1.187637726215
0	18645	621.290919314451	0.565301187781
0	18669	621.894188220178	0.85024259866
0	18675	622.226866510167	1.13985575821
0	18697	624.905629943981	0.261468363359
0	18737	626.650115070843	0.35252121485
0	18745	626.878678059413	0.284276565092
0	18775	627.772821999222	0.027667716549
0	18869	630.347929237447	2.396820119851
0	18872	630.371014136772	0.935944660893
0	18968	634.00456728425	0.482958648766
0	18992	634.72404792228	0.168498543648
0	19026	635.40248717873	0.0302502063
0	19032	635.431167631536	0.187498708462
0	19078	636.553087122297	1.040513025027
0	19135	637.97036692466	0.438922406565
0	19267	640.673890704025	2.359849797014
0	19339	641.965661136949	0.52794386131
0	19348	642.166542151994	1.346499240776
0	19359	642.329214813505	2.128410017232
0	19370	642.51202090851	1.770599945378
0	19376	642.569576310849	0.91190874116
0	19393	643.223161194002	2.845532127872
0	19423	643.922160773529	1.457581240508
0	19438	644.24497516886	0.510987440793
0	19445	644.445312718919	0.783019511157
0	19458	644.81289121496	7.385481228839
0	19482	645.708387559336	0.739164171583
0	19508	646.086346986774	0.646177828592
0	19543	646.58259227501	0.183698565798
0	19576	648.228479761497	0.552332203984
0	19595	649.052200399617	1.213750946763
0	19602	649.238984349127	0.547233750878
0	19625	651.667404238003	0.259974554708
0	19637	651.916295852945	0.148032862037
0	19732	655.159381707632	1.541658002056
0	19767	655.918566701345	1.681218660683
0	19774	656.102872567017	0.432849947224
0	19808	657.308908105147	0.448242696674
0	19843	658.359973009127	1.021809651734
0	19919	661.782485434147	0.336563016382
0	19942	663.724757286049	0.996900211511
0	19963	665.711231112313	0.104044565682
0	20023	668.045624584845	2.079094470571
0	20089	669.579477340946	0.756639234254
0	20107	669.924018645197	1.247598336297
0	20138	670.198870867503	0.745020410089
0	20141	670.199274713632	0.623310689856
0	20159	670.571377157595	0.821658917384
0	20184	671.50535105511	1.543290027826
0	20242	672.847318065693	1.047473053765
0	20253	673.438624694404	1.113386136939
0	20284	674.543087673172	0.781116190303
0	20323	675.503906213883	1.557169869045
0	20327	675.582369492373	1.63839496394
0	20335	675.874759668133	1.165618913259
0	20360	677.553785360391	0.943329174786
0	20384	679.521902975655	0.903941804851
0	20400	679.759675996211	0.686518890829
0	20421	680.060538698734	0.279929267426
0	20464	681.272257182459	1.209297297409
0	20486	682.238767631015	0.236583081218
0	20499	682.970633734342	3.394270700237
0	20512	683.518727300654	0.573677679405
0	20549	686.806999803043	0.184080358744
0	20574	687.69888909401	0.638155177854
0	20595	688.04641633763	0.782091087983
0	20604	688.190809222807	0.4530043209
0	20611	688.297991074173	0.762920007359
0	20656	689.364763591485	0.859340128591
0	20672	689.867879344941	0.968043562936
0	20731	691.520404683887	0.199552921429
0	20756	693.249943034742	1.09565678043
0	20774	694.222207499229	4.090135692099
0	20831	695.52692292256	1.82217757528
0	20852	696.066360705217	0.610164785253
0	20872	696.814323290272	0.271894720973
0	20893	697.989664268774	0.823811055402
0	20903	698.292126685804	0.098680304091
0	20908	698.355070926811	0.416229517693
0	21080	703.567289504232	1.362490089289
0	21097	703.802634671959	3.727026948388
0	21129	704.374782272165	1.531388936308
0	21141	704.469648831924	0.156253777494
0	21161	704.785332058737	1.007472322545
0	21218	705.846577183024	0.449171924522
0	21235	706.498326631905	0.759969636791
0	21303	709.984718359417	0.486299400653
0	21309	710.228342857842	0.854020800202
0	21337	710.956021242543	0.680589025349
0	21380	712.419775615828	1.264743714669
0	21384	712.472760133021	0.267333562882
0	21408	713.005801898249	0.095341818564
0	21446	715.55038987449	1.08267869305
0	21463	716.060302371622	0.73597403211
0	21506	717.197442994752	0.6070381886
0	21530	718.483818478057	1.318770611889
0	21544	719.014274889546	2.673922381434
0	21584	720.229827243429	0.135371212019
0	21591	720.361610870117	2.243692542559
0	21597	720.431380109904	1.162135426164
0	21624	721.796006054871	1.155252415405
0	21643	722.234526905331	0.186797423696
0	21649	722.456916842759	1.011546359883
0	21717	725.658756172115	0.26067596329
0	21728	726.0094688254	0.340618641586
0	21748	726.587053357003	0.517783980285
0	21800	728.666025013942	0.553074041697
0	21841	729.605457167037	1.816568607514
0	21862	729.967481345189	1.100818699021
0	21900	730.740149336877	2.495326523916
0	21915	731.30641763559	0.964802530464
0	21919	731.344903375767	1.453791957034
0	21935	731.979273650417	1.147342529483
0	21958	733.317611890634	1.599479708436
0	21961	733.322982786485	0.593728329827
0	22022	734.585606704137	1.006936982177
0	22048	735.317996701318	1.25424426591
0	22056	735.408261461752	1.898681183432
0	22059	735.437771832642	1.154753330638
0	22127	738.540943215287	0.360512730392
0	22234	742.617454054724	0.465582427904
0	22238	742.650988646338	2.21800301852
0	22249	743.027758613284	0.219443958261
0	22296	745.270711669782	0.847651463322
0	22347	748.593347901394	0.349981309472
0	22376	749.287172328635	0.6211402813
0	22389	749.427601601907	0.463852891365
0	22392	749.454184639488	0.402700348957
0	22446	752.070175642331	0.213321649917
0	22483	752.902849003674	0.774157357101
0	22555	755.032944156129	1.335933069935