version 2
run General-2-20150921-14:48:21-7232
attr configname General
attr datetime 20150921-14:48:21
attr experiment General
attr inifile omnetpp.ini
attr iterationvars $0=62532
attr iterationvars2 "$0=62532, $repetition=0"
attr measurement $0=62532
attr network CloudDataCenterTS
attr processid 7232
attr repetition 0
attr replication #0
attr resultdir results
attr runnumber 2
attr seedset 2

vector 0  CloudDataCenterTS.sink  responseTime_0  ETV
vector 1  CloudDataCenterTS.sink  delayTime_0  ETV
vector 2  CloudDataCenterTS.sink  queuingTime_0  ETV
vector 3  CloudDataCenterTS.sink  serviceTime_0  ETV
0	29	1.688218945863	0.163227542119
0	56	3.144937787988	-0.902022082861
0	62	3.517542548033	1.161650325966
0	74	4.656230977262	-0.325072264184
0	94	5.730747624909	-2.551819893695
0	112	6.999990622002	1.700844155333
0	145	9.707393398397	0.162917464387
0	165	10.250731495198	-0.749197324321
0	172	10.391229246579	0.331451684537
0	175	10.396237384559	1.52916815253
0	221	12.593896510565	2.600435768441
0	266	14.359038942046	-1.846436225092
0	275	14.864355288323	2.25568757171
0	278	15.05721821353	2.312442728619
0	291	16.983001007157	-0.675076027384
0	309	18.71818440491	-0.304775006222
0	329	20.203944456557	0.033280113424
0	351	21.007549466351	-0.581599801316
0	358	21.732741679148	1.422820623565
0	374	22.25885860514	0.187700189268
0	386	22.728485423043	-0.07643012752
0	400	23.005761371354	0.070095596229
0	409	23.365687618778	-0.435221001506
0	418	23.828246526713	1.571505157014
0	441	24.811068914704	0.783862555553
0	459	26.466770082352	-0.150559795948
0	475	27.303144898895	0.147843551459
0	504	28.778348380258	1.011862763558
0	520	29.101114081554	0.176923784643
0	534	29.573241737889	-0.317629782401
0	550	30.316714199783	-0.334142334681
0	554	30.441431299477	1.685924461982
0	581	31.416346864126	3.743966350623
0	596	31.68283993546	2.634423818964
0	631	33.145174935053	1.4921628986
0	646	33.617208830418	1.056979473087
0	655	33.927850299446	0.414752498531
0	687	34.972720317531	0.978064307242
0	692	35.051389084618	0.433232659768
0	707	35.53907413204	-0.040347270244
0	715	35.651527021589	1.404621703669
0	721	36.446517171221	4.890376732108
0	724	36.672570906695	-0.262822295534
0	744	37.733866737813	0.372162853031
0	772	39.555914748153	0.556373836016
0	776	39.657257724362	2.307851960167
0	831	42.887259686293	-1.159028676427
0	835	43.005265615997	0.789495168751
0	846	43.800488097202	0.964020479419
0	849	43.985673866596	1.200800482594
0	877	45.077109255241	0.390979253761
0	883	45.289085381448	0.012873724041
0	896	45.793524695865	-2.080638420293
0	900	45.88789719659	1.31701828389
0	918	47.348490447431	1.727847936049
0	933	48.874551540208	-0.060882150308
0	943	49.573665748943	-1.164684411829
0	978	52.442611604339	-1.248695668997
0	988	53.004969374573	1.599936158399
0	998	54.099181711541	-1.976455897603
0	1031	57.245304896829	-0.623145254454
0	1036	57.399681016532	1.188385089587
0	1056	58.129310314084	-0.64557289173
0	1063	58.390226454237	2.306128169496
0	1066	58.5898689748	0.539303428807
0	1081	59.271435241104	-1.092614929881
0	1140	62.536345808402	2.02978828181
0	1166	63.618088221873	2.828281200512
0	1184	64.369472755222	2.562025368264
0	1205	65.001045721327	2.429299603962
0	1209	65.085544467433	3.732006506404
0	1234	66.114989050808	1.010525100112
0	1261	68.409425387191	-0.153744488425
0	1270	68.590367498966	7.494248413194
0	1297	69.408932133173	4.837829807182
0	1305	69.759151222146	0.40061297963
0	1313	70.083000051976	-1.192087647001
0	1319	70.637252668145	1.756364672583
0	1355	72.799900707176	0.125203409753
0	1379	74.051214950154	0.406466257009
0	1382	74.190439313845	-2.267230901192
0	1385	74.805746239874	3.192493582731
0	1403	77.243262675804	0.333512742333
0	1410	77.495258105365	-0.253654420471
0	1425	78.449660075297	0.129132605394
0	1432	78.729005616636	-0.562910032057
0	1470	80.572946960845	0.845759194222
0	1473	80.579031275082	0.250186156748
0	1491	81.38863170251	0.300286958845
0	1508	81.867277531249	0.056636000402
0	1516	82.260888017006	2.029735287317
0	1543	83.346923877191	0.234756816567
0	1549	83.491731951386	-1.662205702661
0	1589	85.696316900146	2.932566922456
0	1592	86.043240612827	-1.205208786089
0	1595	86.910495978485	1.664469771071
0	1631	88.791696863571	0.755126911799
0	1634	88.821988994215	0.880470421708
0	1655	89.661152502453	1.233671460332
0	1664	90.131801574702	-4.384530935362
0	1699	96.351135319319	-0.28035675152
0	1719	97.362997463803	0.40762763364
0	1734	98.182978708496	1.391893620027
0	1761	99.248099503609	-0.350391941883
0	1771	99.453835996705	0.325927578292
0	1779	99.822400464686	1.171494636596
0	1792	100.814567925066	-2.42878567535
0	1815	104.117825276889	0.330602511811
0	1821	104.430008222681	-2.742900372074
0	1838	105.735191781096	1.901247719054
0	1851	107.617851728077	0.208846755073
0	1864	108.104481751965	-0.953812976325
0	1896	109.980986857804	-0.112406890878
0	1916	110.430980454019	0.710167735742
0	1929	110.956510310866	0.846290638806
0	1932	110.961184124821	0.290626843181
0	1943	111.27192658033	3.461294068859
0	1991	113.064653125863	1.169379607051
0	2009	113.607337613436	1.059063177861
0	2050	115.710872377227	3.786477734235
0	2056	115.819259411748	2.496153703161
0	2067	116.623514508972	5.571665836111
0	2072	116.762436183528	-0.951889124253
0	2096	118.967386049882	0.396414005314
0	2106	120.155859034423	-0.212567780885
0	2139	122.234549463483	-0.039866234109
0	2161	122.856675181652	0.370287367984
0	2190	124.038650025869	0.119276180373
0	2198	124.252683504211	2.705449854678
0	2209	125.053306529589	-2.02909812839
0	2226	126.352370465681	3.643809310095
0	2234	127.180577807848	-0.165983736861
0	2265	128.26020347059	0.861376799977
0	2273	128.574875886253	-2.532278751757
0	2286	129.672187186782	1.937057701214
0	2303	131.756561021067	-1.264288701934
0	2309	131.818429292788	0.533103692978
0	2322	133.788331747225	-0.256302630762
0	2339	135.017060298753	-0.044894070553
0	2371	137.628309715657	-0.047037685308
0	2379	137.918374128748	0.813563745237
0	2398	138.75134731143	-0.035950509388
0	2433	140.812272502231	-1.3664298139
0	2442	141.381330444304	2.726869053087
0	2462	142.868831779611	2.803188848766
0	2478	143.611199923278	0.633745871512
0	2494	144.107406027676	0.469921070059
0	2497	144.19942212678	-1.292801947629
0	2568	148.637667785693	1.197057748463
0	2585	149.554417292976	3.378626480562
0	2613	150.672334564065	3.948403600214
0	2617	150.731400558539	3.789022950384
0	2623	150.8085436569	4.817565836348
0	2634	150.997998287473	0.716002262969
0	2662	151.990087089828	0.894969408869
0	2679	152.653341941335	2.197760769049
0	2683	152.726500442786	-0.401236287023
0	2687	152.843113019128	5.666159294535
0	2700	153.238222935588	2.932828940411
0	2704	153.336298522852	2.458908522187
0	2716	153.802737242648	0.019329054379
0	2750	154.821055363145	-1.240977124452
0	2756	155.05335988742	0.643064462468
0	2759	155.141724948437	3.251200177049
0	2766	155.653613275273	1.697169790247
0	2785	156.425141534474	0.222280853532
0	2791	156.785567337219	-2.075872258241
0	2794	156.982497838577	0.65963059669
0	2817	160.133456685069	0.035108376631
0	2824	160.345159166792	-1.859631906237
0	2839	163.322531536916	-0.127244355649
0	2855	164.472343782091	0.23217431868
0	2863	164.6525835032	0.201223775459
0	2878	164.957586662722	0.19965021334
0	2884	165.192237375945	-1.953001737405
0	2892	165.509247233181	0.809912362106
0	2929	169.329005404097	0.094558778079
0	2937	169.776076285041	1.019846527658
0	2962	170.71521534689	1.661166696449
0	2986	171.770267476648	1.937493876034
0	2994	172.09495807255	0.868073960697
0	3002	172.426334644999	0.827993653092
0	3007	172.585660549833	0.440768198169
0	3014	173.605906211523	-1.222966748066
0	3044	176.473538592339	0.513152336737
0	3069	177.692107111258	0.835803576626
0	3072	177.726811000935	0.25001638224
0	3075	177.959884791606	-1.218001355375
0	3083	180.287776066555	-0.225928314811
0	3128	182.346278623851	1.448692011653
0	3174	183.81796641217	0.552737279821
0	3202	184.540790071776	1.693023814613
0	3220	185.010663802002	1.052847807279
0	3235	185.559388247912	1.393178512294
0	3251	186.138564601288	3.287147654937
0	3261	186.41048683298	2.336948624709
0	3271	187.075702344083	-0.764396734298
0	3306	188.711568935595	4.943232900255
0	3312	188.801430097716	0.119701003883
0	3342	189.621183515626	-1.139738753468
0	3348	189.812077749124	7.550029100084
0	3366	190.471364532014	0.874275335836
0	3371	190.573367135857	1.568273527411
0	3395	191.406287816066	2.163350789898
0	3419	191.897809067324	3.580744567599
0	3428	192.188164988338	0.338360102448
0	3475	194.023096251952	9.098963843781
0	3492	194.42184661369	2.974743028803
0	3501	194.606350933205	1.243842280128
0	3518	195.058296238452	-0.556899947131
0	3531	195.463205124462	0.938349249241
0	3540	195.655705636133	0.847205735068
0	3548	195.864890073344	4.274746626767
0	3551	195.894541680154	3.041338114548
0	3575	196.709494339444	0.21913778669
0	3587	197.433595444024	1.495334071902
0	3606	197.995637951385	-1.252843882221
0	3609	198.216992086471	0.691868284743
0	3612	198.426079086819	4.330053935936
0	3675	201.686781675501	2.008173653135
0	3681	201.804080147416	1.484664865988
0	3702	202.331162036894	-0.575379021416
0	3719	202.820000515136	0.710644038252
0	3729	202.926040182789	0.993499403212
0	3732	202.964825111355	2.592734720876
0	3741	203.366567989507	-1.5434486593
0	3744	203.419404020826	2.839034755588
0	3767	205.534509704152	-1.906232037364
0	3779	206.454207875041	1.34666988143
0	3793	208.072221274585	-0.816096531108
0	3825	210.189638521039	0.730781801504
0	3832	210.32056565599	0.531902773806
0	3847	210.861745289141	-0.342302093719
0	3872	212.539075072171	-0.042735887737
0	3885	212.969062606804	-0.254794207624
0	3895	213.236922324233	2.966395526065
0	3923	214.102357952512	0.446090327691
0	3931	214.279906382533	-2.550559597631
0	3939	214.62038351905	0.609464079477
0	3945	215.0165824867	1.652968645318
0	3959	217.22545669802	-0.436090739056
0	4027	221.567882315473	4.612688196029
0	4031	221.670749616261	1.284343602962
0	4037	221.864589976252	-0.408788683217
0	4050	222.410887368045	2.576725143512
0	4059	223.124850789795	-1.258010546392
0	4114	226.263605066057	1.303867539133
0	4124	226.582144951648	-1.893942962335
0	4151	227.556133370609	2.239022988667
0	4158	227.69540107663	2.106575634498
0	4161	227.707262947665	2.365454675336
0	4169	228.055881710635	2.458223275745
0	4197	230.023844962438	-0.83724524471
0	4200	230.20261174323	1.096500756744
0	4239	232.085433024202	-1.315241702918
0	4263	233.338202358134	1.613123854931
0	4328	236.035547937675	-0.396367682041
0	4336	236.193005500381	2.245633890779
0	4357	236.850990365823	3.361016264868
0	4365	236.990271229516	-0.931186596841
0	4374	237.202411265851	6.249024355
0	4389	238.167997138448	-2.627846373323
0	4392	238.169888050755	1.468576886863
0	4395	238.631519506079	6.752056238241
0	4412	241.342045627329	0.018110189546
0	4429	242.030925459232	-0.987803357299
0	4432	242.068459414749	0.72970702138
0	4453	244.39377887398	-1.009219378558
0	4475	246.597622511114	-1.483592297244
0	4495	248.049427146817	1.800877107003
0	4518	248.494646618585	0.361598185092
0	4521	248.633161343167	-1.384916474471
0	4524	248.821513760576	0.45002388321
0	4537	250.331653510125	-0.644988468244
0	4551	251.078465613529	1.046231584494
0	4554	251.112737459376	-0.125150592603
0	4564	251.942966183968	-0.075997550909
0	4582	252.57588900314	0.430497123004
0	4592	253.455104429737	0.701892266446
0	4614	254.508715223116	0.888269633165
0	4621	254.546105933392	0.030203432712
0	4661	256.830396438997	0.711652730916
0	4666	256.910140734998	-0.228277207618
0	4717	258.98789461893	4.945419834434
0	4725	259.34780547677	2.622512668892
0	4728	259.367747599922	0.787538182227
0	4745	259.753367546661	0.195575148925
0	4749	259.827499658733	1.313036732477
0	4777	261.32905798237	0.866825606481
0	4797	262.013351954015	0.275917263158
0	4818	262.702052338869	-0.546142224596
0	4822	262.859137725978	1.741365534361
0	4870	264.717644427068	2.675698229384
0	4895	265.667020664415	1.031341223765
0	4928	266.719137814676	2.662402420232
0	4933	266.831971674972	0.677795774441
0	4950	267.504523698184	3.405398959791
0	5008	269.828078322008	0.748757889631
0	5041	270.966925708028	0.605358543915
0	5051	271.305153501081	4.718187198678
0	5067	271.810963862615	1.887263924283
0	5075	272.058326618459	0.515992681369
0	5086	272.375806492394	-0.064096476446
0	5102	272.853142755082	9.202522279279
0	5109	272.882575337465	4.177607743797
0	5124	273.34673949706	0.477972289345
0	5202	276.179649095862	1.36552623058
0	5207	276.219669888134	2.122616348854
0	5228	276.952604399761	3.486491818873
0	5273	278.499525297534	5.277812929159
0	5286	278.94173702515	3.499470365921
0	5291	279.037422375459	9.352957331247
0	5306	279.393810360441	1.931379403839
0	5317	279.614228864607	3.969423960902
0	5323	279.825719781537	0.894966562503
0	5335	280.306821128606	5.88299663316
0	5364	281.197328826329	1.598282624091
0	5376	281.521789668473	1.071251899107
0	5379	281.556724739734	-0.114460048776
0	5386	281.683615156062	1.084313675608
0	5394	281.982702594418	-0.522456934359
0	5401	282.172023923812	4.323572315017
0	5413	282.694235533219	13.873133286687
0	5452	285.739474023768	-2.760531033582
0	5466	286.665580372682	1.257636368561
0	5489	288.578854965967	9.520847945474
0	5496	288.837430342101	-3.164393796615
0	5516	292.952454873581	0.14328302217
0	5537	293.758285964911	0.730643219877
0	5552	294.236558661167	-0.263181174104
0	5587	295.590396812813	-0.88002506556
0	5590	295.609376546484	1.57195376315
0	5606	296.493448678787	2.742982839024
0	5616	296.903356226887	0.098480169169
0	5627	297.482880678826	-1.349238961956
0	5643	299.838113052391	-0.243816134871
0	5660	300.622873898833	-1.603402355904
0	5690	302.786541005467	-1.525508705579
0	5693	303.627608475689	3.185863543198
0	5718	305.443788591534	-0.046542069566
0	5738	306.694560280879	-0.008474321542
0	5746	306.76569843198	1.92189702257
0	5772	308.448060619858	1.065335381453
0	5790	309.180421958329	-0.335443031112
0	5798	309.461796255881	0.963342744922
0	5822	310.865422586294	0.334573206638
0	5842	311.485095639087	0.667692544981
0	5884	312.858932997989	0.835283156228
0	5894	313.277610693185	1.224487152598
0	5901	313.448808881925	-0.901543502854
0	5906	313.475936186436	2.35949853111
0	5911	313.661548542133	1.630774888517
0	5923	314.869092090598	-0.109983199652
0	5944	315.60376071336	0.602533143447
0	5951	315.879917264787	-1.250971542588
0	5967	317.567458142795	-0.914583130887
0	5999	319.495344777915	0.238660267471
0	6027	320.646201484874	0.692451865289
0	6034	320.88285533094	-1.746781794178
0	6040	321.075119483411	3.649741332843
0	6071	323.749310866227	0.887847361402
0	6178	327.948673671769	4.261665549724
0	6194	328.530231467764	3.212703481766
0	6206	328.835703359028	2.353606751902
0	6210	328.892513531487	2.291766691406
0	6221	329.45399094687	-1.400511570386
0	6231	329.987385350094	4.685171425452
0	6236	330.167971618285	4.327535842374
0	6246	330.985486703441	4.476811466268
0	6271	332.3621057738	0.441978293832
0	6279	332.678775239294	0.202400619901
0	6296	333.466414589002	0.51471037796
0	6326	335.317274877715	-0.466921619266
0	6334	336.054088605291	1.137941893893
0	6359	337.335026701988	-0.764222093763
0	6390	339.414917341647	0.1847890441
0	6411	341.054022017834	-2.309469367304
0	6449	343.801021088294	0.3264611788
0	6458	343.964883393709	0.317437465682
0	6490	345.165447485236	8.914845924962
0	6517	346.153116495606	5.895534226891
0	6521	346.262274977974	0.725867094622
0	6530	346.33077590073	2.107520153035
0	6540	346.67693107629	0.357869368185
0	6546	346.86117436082	-0.43177904332
0	6558	347.440050532274	8.911503760674
0	6565	347.793340215214	-0.383627554894
0	6605	349.707865115899	-1.439131994646
0	6622	350.439379947903	1.189385159921
0	6643	351.474984397976	6.470749021636
0	6657	351.822010193062	0.619378548734
0	6684	353.048546603484	9.146335483195
0	6688	353.17328592931	0.179337400034
0	6713	354.188564941032	0.330190767331
0	6742	355.51849700944	0.907536040749
0	6773	357.05391375845	1.500479759817
0	6787	357.678049551237	4.497168064371
0	6796	357.975877446405	6.193893476811
0	6836	359.739652803238	0.686438554113
0	6842	359.878931250469	-0.15550402647
0	6859	360.296624319071	-0.764282985335
0	6892	362.826968714162	-0.573644511054
0	6916	363.893225374125	9.687006436585
0	6919	363.965418859574	-0.019664019756
0	6935	364.894167152508	0.006778105683
0	6949	365.729343347876	0.19161228727
0	6958	366.355522767152	-1.552926549802
0	6974	368.539202618205	-0.548339348627
0	6999	369.943827019166	1.664847182127
0	7014	370.501188909562	0.371215970189
0	7018	370.633598871926	1.454422827315
0	7031	371.14005506036	0.041330707512
0	7059	372.312240752961	0.788726958758
0	7078	373.746647471598	-0.274145482027
0	7105	375.421714007973	-0.108320205344
0	7130	376.745126652751	-0.833818957595
0	7178	378.758138543492	0.220129484367
0	7185	378.905719542419	1.04078152483
0	7195	379.17357087195	1.145078409351
0	7206	379.460492284796	1.451734464817
0	7235	380.930270751545	-2.320558903562
0	7245	381.657641296212	5.380372500806
0	7255	382.208317628013	1.826583727951
0	7272	383.615377293686	0.010652080288
0	7276	383.711752786409	12.578568515566
0	7325	386.119052874809	-0.831312333799
0	7328	386.495733189536	2.089239554436
0	7347	389.211884021184	-0.210107870626
0	7362	390.33694828276	-1.086448143225
0	7372	391.685278973985	-0.168836365962
0	7390	392.956461765873	-0.200985085628
0	7414	394.240301456597	0.112382403965
0	7432	395.027062359056	-0.15447774174
0	7448	395.497337902085	-1.892914824809
0	7461	396.387363044335	1.639604232143
0	7476	397.18185715797	3.062012353938
0	7508	398.601327586482	0.638629435577
0	7517	398.9542079703	0.403401885641
0	7582	402.82907319498	7.480892646047
0	7601	403.315849939689	0.487154873126
0	7604	403.328602221753	0.040445836848
0	7616	403.584643116372	1.307618591622
0	7645	404.598763987865	1.191617163115
0	7652	404.754777713418	0.221777094076
0	7657	404.779147333195	2.614431578567
0	7660	404.791523393903	2.721590616556
0	7672	405.132161201299	0.16689794953
0	7685	405.67389626005	0.199942536919
0	7688	405.833843647105	-0.61530344549
0	7730	408.975015832905	0.97043530464
0	7742	409.288375925072	0.281092133988
0	7748	409.384511931084	-0.315647602232
0	7760	410.616057221145	-0.696591214468
0	7770	411.725903700433	-0.054584485572
0	7778	412.055226897345	-0.851619349915
0	7790	413.400966982611	-0.708790840239
0	7810	414.975451676604	0.184524968251
0	7834	416.079193398093	0.194986552029
0	7840	416.111231613694	-1.895544395206
0	7868	417.548350721578	1.538940682274
0	7914	419.549007067102	3.637725705057
0	7921	419.934574058523	-1.620874683742
0	7931	420.653443094339	1.957681911393
0	7954	422.547519388345	0.188243067388
0	7978	423.737881359369	-0.425871087112
0	7998	424.567231426678	-0.517014683312
0	8018	425.31117810502	0.92049994975
0	8021	425.325458041876	0.015983979524
0	8049	425.833364734207	0.501155662235
0	8056	425.974223541935	2.957837402748
0	8062	426.116289966797	0.336605965248
0	8079	426.739516196405	1.345712136589
0	8127	428.636414489634	6.672106928014
0	8156	429.476421997209	3.855930631169
0	8166	429.723632795426	0.852764932917
0	8171	429.819756156009	1.860869172661
0	8177	429.912983039508	0.208297754759
0	8185	430.199463579538	0.81796440933
0	8202	431.184319859536	0.110846257917
0	8210	431.365298104308	2.857807858201
0	8247	432.781976203202	1.239669826152
0	8257	433.247227857828	-0.281646403872
0	8262	433.495745527449	1.86298417904
0	8288	434.637639225994	-0.365626924974
0	8318	436.070964526257	0.094935082862
0	8325	436.350554134915	4.834689710419
0	8346	437.211263797363	0.514416539394
0	8353	437.330092779423	0.016637451311
0	8362	437.850570214301	2.299546644685
0	8372	438.129611712964	0.16666351193
0	8399	439.057000423097	-0.027853370719
0	8418	439.46257605769	-0.901768553967
0	8441	440.319005975038	1.68723568513
0	8471	441.005109536369	0.295911634175
0	8480	441.633386732312	2.505389458873
0	8484	441.740901917608	8.019353680712
0	8491	442.037344369228	1.495951137805
0	8572	445.710417689018	-0.032344429116
0	8587	446.121444180066	3.489671744189
0	8601	446.50782773331	2.394165525491
0	8604	446.522487008797	3.046507268873
0	8609	446.804784584589	-1.341900009702
0	8619	448.810726348004	-1.81866343691
0	8627	450.799024791252	-1.719301579378
0	8635	452.549152102034	-0.468702821379
0	8694	455.261080011422	0.664459121243
0	8708	455.597139576028	0.008932960266
0	8712	455.713912296966	1.669367666298
0	8768	459.469772977487	6.195777888483
0	8793	460.246688882341	2.745144753631
0	8808	460.654715990675	-0.419603305651
0	8856	462.265968640898	0.494984506159
0	8883	463.217549342361	3.217244834446
0	8886	463.232355442366	0.147672347234
0	8900	463.600297512067	-0.027516496251
0	8910	463.694188908401	3.633317130003
0	8924	464.135816038377	4.561025720701
0	8931	464.37774593742	2.443340506787
0	8939	464.567157709134	-0.941235405701
0	8950	465.365690964651	1.530763764992
0	8963	466.116781314218	-2.711236578553
0	8971	469.588798420094	-0.904746554604
0	8982	471.702583626079	0.040985739149
0	8991	471.896337915516	-0.173686443613
0	9025	473.326319337295	0.758775578013
0	9030	473.493080786833	-0.96598719812
0	9038	473.972271733271	2.157622466428
0	9055	475.032067734397	0.318208103353
0	9058	475.270255167401	-1.907825429388
0	9074	478.836768179823	-1.693699353648
0	9111	481.345876561691	0.297902412927
0	9121	481.634413960827	0.851957058817
0	9129	481.979935237446	0.968694138997
0	9132	481.982287883252	1.449407757279
0	9137	482.399121880423	-1.009395238049
0	9179	485.177252218598	0.526408529534
0	9187	485.613798788508	1.778806248941
0	9190	485.717980741497	-1.710620372566
0	9220	488.972423809921	-0.603853772941
0	9235	489.797545877474	1.543848278894
0	9252	490.634186399544	0.064916044252
0	9263	491.008501227794	-0.106145038263
0	9273	491.271679872417	0.395979144743
0	9284	491.52506355654	0.195489586979
0	9292	492.111882664505	-0.068207496606
0	9322	493.704616806558	0.293861498345
0	9331	494.254203899265	-0.176600843213
0	9346	494.627843356287	0.13660248233
0	9360	494.862606535199	0.431310284758
0	9372	495.344753502001	0.560201525731
0	9382	495.990030823169	1.288627613778
0	9391	496.596786935409	0.053357064611
0	9402	496.90955091801	0.212174410076
0	9421	497.903530643566	0.368547934672
0	9455	499.541671590546	-2.126859487658
0	9460	499.743944350848	0.316043007368
0	9463	499.809435729706	1.294698465064
0	9471	500.214632710126	0.76324679818
0	9490	502.402520550002	0.078768877104
0	9493	502.515718420248	-0.937938856996
0	9509	504.147104065398	0.144383076006
0	9530	504.948139911995	0.132825737276
0	9541	505.606760292655	1.50197505329
0	9569	507.379656464321	-0.13145178038
0	9572	507.43439149748	0.693547552077
0	9610	509.021059782348	1.089089868106
0	9642	510.106615131395	-1.847060353585
0	9656	510.488612929476	0.955908210373
0	9666	511.293455180018	2.963745395791
0	9669	511.322799516341	1.636755174421
0	9678	512.688016766986	-1.213823176103
0	9695	514.589447108949	0.092963581786
0	9711	515.18817052269	0.568739021806
0	9714	515.636016692837	-1.473246959297
0	9724	517.763472238566	-0.242739764807
0	9736	518.382360127147	0.002687199322
0	9761	519.315295634803	0.208417339782
0	9803	520.834579472341	0.515970530938
0	9827	521.746556217832	1.828355898516
0	9831	521.78230343591	0.779049552857
0	9839	522.17536126066	-0.320626670609
0	9878	523.772767159254	4.463922381056
0	9888	524.072248096298	0.764480920346
0	9895	524.402226354461	5.439290102923
0	9915	525.61947671126	2.590531456412
0	9960	527.559436597529	1.990990045059
0	9978	528.155221230813	2.278643106767
0	9987	528.438836894931	2.13782262248
0	10024	530.11365814457	2.383777513305
0	10032	530.376926075676	1.651327685947
0	10062	531.867663003342	-3.425811431564
0	10079	533.506834847728	7.980783548997
0	10084	533.570312948909	3.64645064378
0	10092	535.607502198478	-0.209935184251
0	10111	536.558924703802	0.387353163803
0	10114	536.771236046216	-0.15541144842
0	10143	537.728052396765	0.721381976019
0	10168	539.394759600263	-0.722498982892
0	10183	540.454105130097	1.633198991448
0	10200	541.174318183554	-0.503511277318
0	10225	542.450753870797	0.559115421289
0	10258	543.835596694048	1.172727453203
0	10262	544.084166083022	3.481771942184
0	10272	544.676295858537	-0.243523484042
0	10289	545.748407266665	-1.658540872442
0	10319	548.149666647286	0.272440118212
0	10360	549.924856880151	2.344368051123
0	10378	550.615227385225	0.945906779706
0	10384	550.807017272384	3.012085526548
0	10397	550.978551762219	0.532307466862
0	10410	551.466236599994	3.724007817648
0	10426	552.501072123618	0.909612487453
0	10447	553.303189299106	0.747870121204
0	10455	553.352124724511	0.048326889175
0	10463	553.726242710738	-1.660402533349
0	10489	555.747004218403	4.923596199834
0	10505	556.507970524776	-0.900187546957
0	10523	557.951439116462	1.707045788816
0	10538	559.701101950567	-0.698262034929
0	10553	560.832613315884	-0.717367113416
0	10556	561.344381619227	0.725006430394
0	10588	562.751540987428	0.836994651865
0	10595	563.08692060572	-1.161702464982
0	10598	563.22093289562	0.515740618608
0	10607	566.375250555018	-0.296712396583
0	10622	567.338159949529	0.305408405647
0	10634	567.986326826203	0.306208187274
0	10640	568.086042595527	0.173773250239
0	10703	570.37566879986	2.21327771245
0	10709	570.500447858447	0.886336276682
0	10735	571.272434269886	2.026818069523
0	10761	572.248919755296	-2.315524572371
0	10768	572.469340550556	1.431122383531
0	10771	572.482992116904	3.867979854483
0	10774	572.848591388021	1.58945068707
0	10796	575.324946889696	-0.071891857265
0	10821	576.574016100935	1.700263926775
0	10847	577.404716139434	1.419238186207
0	10862	577.93781261021	-1.291486196209
0	10865	577.992747568769	0.745490363244
0	10894	580.135455096294	0.686712399934
0	10899	580.222933699327	-0.958251250927
0	10906	580.917954456907	1.575606336079
0	10965	583.311000287441	1.114683517671
0	10972	583.462288751562	1.33049497804
0	10989	584.156296845808	-0.135873222424
0	11011	584.894121307627	3.370459618289
0	11025	585.239416118166	0.243989334864
0	11056	587.865962020776	-4.834381195906
0	11073	589.89814987589	5.431207926756
0	11091	593.412883911226	0.146028583346
0	11122	594.661119443097	-0.320858037021
0	11129	594.964297433407	1.388886352253
0	11137	595.481567857634	-1.793115748286
0	11177	598.977406758703	0.833592850441
0	11190	599.33604698185	0.108524029485
0	11193	599.364964153521	1.958344334306
0	11205	600.659532240076	-0.431118816636
0	11215	601.46740997808	-0.136801560834
0	11230	602.236340468522	-0.695387553505
0	11255	603.401457388451	0.440406778198
0	11300	604.762685696958	0.496660979045
0	11307	604.89122061016	0.532692063429
0	11323	605.330093544236	2.134320093378
0	11338	606.142669569492	1.513087394135
0	11360	607.051638411	0.367940727156
0	11371	607.469238511634	0.776437619728
0	11396	609.107746738426	4.711812284778
0	11402	609.139929578577	0.042936483296
0	11436	610.235134983196	0.920557767263
0	11443	610.303953530678	0.961349474641
0	11469	611.375878927859	1.128092598411
0	11472	611.378732288066	-0.693252302749
0	11480	611.898823279702	2.761355683277
0	11491	612.118724702906	-0.502350159892
0	11508	613.144013465286	3.681962282387
0	11515	613.359920125724	-0.340412863526
0	11549	615.447313388946	-0.237780615995
0	11578	617.453297620141	0.508798009023
0	11602	618.792348544738	0.621172935099
0	11627	619.979573965582	0.889856119754
0	11655	621.259667308135	-1.537811200121
0	11664	621.895271524276	2.676123459136
0	11669	622.07522542275	1.158543413404
0	11688	623.105074398462	-4.621091076057
0	11696	623.451993167608	9.146604927861
0	11722	628.845797094567	0.731476621114
0	11733	629.325798207436	1.14800760585
0	11747	629.976492664536	-0.275759559381
0	11779	631.137584458046	0.301774813162
0	11788	631.886529138451	1.328187289704
0	11799	632.696184491968	-0.046788110424
0	11830	633.547931979433	0.66731496397
0	11840	633.762294849511	-0.831103736401
0	11848	634.160937992448	5.052393275971
0	11855	634.479409353858	1.056259824455
0	11873	635.166255459475	0.293568320329
0	11887	636.059053960181	0.236047011652
0	11898	636.358278657962	-2.978113934343
0	11903	636.523897485012	0.319893171035
0	11923	639.918339622541	-0.025671546904
0	11931	640.298650468265	0.949692014531
0	11952	641.274367591406	0.07466474478
0	11969	642.98960449004	2.02837656556
0	11986	643.858596272377	0.272281862881
0	11994	644.422199987051	-0.294306398064
0	12026	645.599437475715	-0.364477786471
0	12036	645.845544678927	0.55430622471
0	12041	645.936519832102	1.133423102235
0	12068	647.360977247259	0.69636696746
0	12085	648.496697521316	1.888520456544
0	12090	649.106314256341	-0.588846504433
0	12099	649.852779003823	-0.764139058052
0	12124	650.9726138649	0.329554956524
0	12132	651.16709476292	0.216976601704
0	12166	652.538261190679	0.566544054737
0	12178	652.861943688322	0.228382534242
0	12231	654.881035158715	1.769468237432
0	12243	655.287490349803	2.039180255773
0	12260	656.08442127437	-2.720666185321
0	12266	656.35342067052	5.12663517416
0	12274	656.834696195729	6.006535079388
0	12277	657.402236030941	6.784719976465
0	12324	661.026558054587	-1.293686135984
0	12332	661.451827047598	1.781446192598
0	12335	661.53296707407	1.413331641028
0	12371	663.277559523672	0.802661713793
0	12374	663.294798417679	-0.119948559036
0	12396	664.127440344511	1.384493393061
0	12411	664.707625511688	2.059754808238
0	12458	667.518154547232	-0.879364849553
0	12462	667.62028687933	1.02109498981
0	12477	668.737967306988	1.822960312933
0	12530	672.005021123125	0.685153821926
0	12545	672.738021487276	-0.007336479158
0	12562	673.346447448985	6.860078535856
0	12567	673.389824343894	10.799592806707
0	12578	673.830451917007	-1.466766930772
0	12592	675.138988228593	1.874592202574
0	12621	676.5974463772	-0.020606320848
0	12635	676.786820429812	1.091090652193
0	12645	677.0068993405	0.114440247565
0	12648	677.045466934917	-3.28834517432
0	12655	677.471780671281	7.489259085233
0	12671	678.537199086438	6.558651449676
0	12681	681.049929189879	-1.414115845196
0	12719	684.476314172691	1.681991747522
0	12728	684.737239907528	-0.028673119518
0	12736	684.905946113628	0.393298247508
0	12754	686.400005368073	-0.501119360187
0	12759	686.69946072503	1.036695051582
0	12817	689.052836065383	1.736172522626