version 2
run General-0-20150904-21:17:20-4365
attr configname General
attr datetime 20150904-21:17:20
attr experiment General
attr inifile omnetpp.ini
attr iterationvars ""
attr iterationvars2 $repetition=0
attr measurement ""
attr network CloudDataCenterTS
attr processid 4365
attr repetition 0
attr replication #0
attr resultdir results
attr runnumber 0
attr seedset 0

vector 4  CloudDataCenterTS.sink  responseTime_1  ETV
vector 5  CloudDataCenterTS.sink  delayTime_1  ETV
vector 6  CloudDataCenterTS.sink  queuingTime_1  ETV
vector 7  CloudDataCenterTS.sink  serviceTime_1  ETV
vector 0  CloudDataCenterTS.sink  responseTime_0  ETV
vector 1  CloudDataCenterTS.sink  delayTime_0  ETV
vector 2  CloudDataCenterTS.sink  queuingTime_0  ETV
vector 3  CloudDataCenterTS.sink  serviceTime_0  ETV
0	58	1.071685240154	1.071685240154
0	63	1.096029766007	0.114148878313
0	133	2.301117302675	1.643959589106
0	183	3.118800337066	1.232734817235
0	195	3.228692742852	0.584359236026
0	229	3.722686459818	0.089860509666
0	233	3.769452928666	0.804272070825
0	237	3.817559106478	3.189593727455
0	355	5.387417865489	1.087523671395
0	395	5.911165918234	0.479708644788
0	401	5.974988124627	1.361386892494
0	435	6.6002724554	1.398822160824
0	449	6.707196615716	2.476316765836
0	459	7.072313799638	2.575863326892
0	465	7.137467526599	1.994494936919
0	513	7.992828799905	0.680407884208
0	551	8.74599701175	0.293558377476
0	597	9.520980240959	1.61896456173
0	609	9.694533874818	0.321454004801
0	639	10.395670998752	0.738639051995
0	669	10.923022065903	0.134123331216
0	712	11.996888666855	0.606870648545
0	750	12.60921432113	0.549250239915
0	773	13.111169175901	1.182233715523
0	815	13.54465154671	0.388964266661
0	866	14.386507974803	0.428528445931
0	873	14.43370496761	1.223744138314
0	890	14.695168279809	2.169002758391
0	905	14.782328751812	0.145239138671
0	947	15.245991876727	0.589760807144
0	958	15.396363055912	1.385577205226
0	964	15.441871379377	0.694371008853
0	991	15.902908349311	0.820419914396
0	1015	16.187252062659	1.364356187039
0	1050	16.692049729295	0.613337649191
0	1090	17.400564061054	1.349787007394
0	1110	17.626561697075	0.943179670329
0	1169	18.370095670984	3.31356351216
0	1193	18.719556975265	0.403728678544
0	1202	18.818895681182	2.604083013297
0	1225	19.239894107309	0.707340431934
0	1264	19.778219744546	6.349744908364
0	1295	20.100633249814	2.816765769798
0	1324	20.593776169702	0.89953684639
0	1388	21.529384040954	0.313216893775
0	1391	21.579089660028	5.491029844714
0	1509	22.898614166589	0.998255335475
0	1609	24.471762945929	1.627605915115
0	1615	24.487383409789	5.474109948629
0	1632	24.782401763312	4.255725201187
0	1656	25.078978204386	1.436111371163
0	1745	26.305764402296	3.129203496707
0	1782	27.017942720046	1.140759191397
0	1829	27.498565802961	2.357936009588
0	1840	27.614173383447	5.461674585708
0	1897	28.35357028276	2.807374770965
0	1921	28.755436796196	0.790835494239
0	1937	28.921424866048	10.57570608787
0	1945	28.989987462398	7.152144926245
0	2009	29.656269517007	0.706639432254
0	2028	29.838279222193	4.012579875403
0	2039	29.987222985794	0.876713793024
0	2101	30.823288682077	1.269899166293
0	2141	31.27353654209	3.59188251095
0	2164	31.446734700476	2.451935993683
0	2191	31.886716543761	0.812672017894
0	2196	31.975445429821	12.158960595488
0	2279	33.152161932539	0.189022365796
0	2284	33.210161432958	1.039400034176
0	2304	33.503220494374	3.194600177978
0	2356	34.252009362785	9.031212522169
0	2373	34.396025438432	3.273582176411
0	2393	34.547773893279	1.03819254827
0	2424	34.870210781941	0.246418430798
0	2478	35.487535274383	1.750183794589
0	2488	35.606528801383	17.62782278948
0	2503	35.800094355672	0.48650935817
0	2522	36.052614472126	0.958377413462
0	2545	36.305024302009	1.84145833337
0	2574	36.760698856149	3.753143098079
0	2604	37.133432055454	1.410122100905
0	2686	38.347122224244	5.869988103031
0	2702	38.551672064543	3.067968457235
0	2721	38.848714020727	2.58155360769
0	2733	39.042723731611	1.031249990611
0	2741	39.132323726861	3.852505807797
0	2769	39.419160624373	1.164427313494
0	2796	39.822731738148	6.093611900346
0	2841	40.56563245234	19.469427064879
0	2858	40.690461719191	6.191644776372
0	2861	40.69108874522	4.691877729852
0	2910	41.566207817604	1.296874115638
0	2975	42.591325980384	0.601520254626
0	3006	42.998501897593	3.814781136304
0	3043	43.381280472447	5.705998182465
0	3078	44.02922426438	0.551588824237
0	3118	44.77440441525	6.281413193885
0	3128	44.943963790946	1.26346517887
0	3152	45.66422685322	0.992321951008
0	3164	46.007741244268	9.717031195704
0	3167	46.011643601717	1.095184494195
0	3195	46.383146789497	21.249179618538
0	3229	46.764025757299	0.564616412439
0	3248	47.017319539271	0.260749750683
0	3284	47.764766527907	1.332208669829
0	3306	48.223914565734	5.098753786278
0	3315	48.32116453599	0.450312985361
0	3322	48.368682748883	1.889247197001
0	3349	48.898029531466	14.904214555758
0	3357	49.006140666885	2.972861633814
0	3377	49.325815557346	2.507764485315
0	3411	49.854189483449	0.752015798118
0	3431	50.119585431071	0.650476762229
0	3468	50.796264536134	15.936488141106
0	3496	51.198608265535	0.359896179702
0	3525	51.421666078659	1.643531221248
0	3534	51.640943283529	0.390500066218
0	3557	52.194623834525	0.746379426102
0	3676	54.388096536187	0.408205472387
0	3707	54.782203342362	7.369987690188
0	3718	54.970983288848	2.145477632867
0	3768	56.041594630546	3.506233768556
0	3803	56.767851411797	0.58262801823
0	3841	57.504818609305	1.76793813403
0	3850	57.618433561872	0.341610818269
0	3861	57.828083720536	1.389728343428
0	3895	58.221758537169	4.800126760147
0	3923	58.843847697412	0.967949259887
0	3931	58.899556739963	1.012694612094
0	3947	59.207917487121	7.979437886873
0	3964	59.559035782452	1.521196152839
0	3986	59.849736503287	8.543028312787
0	4019	60.459156935333	0.10330215761
0	4087	61.700696235809	2.06891452006
0	4090	61.725817035654	1.318803018145
0	4117	62.418620034353	1.576566061661
0	4184	63.740328930861	0.800640648109
0	4224	64.467236635664	0.235015916745
0	4305	65.595727475892	0.309332971392
0	4311	65.667025042103	1.628403056804
0	4326	65.845132554757	2.670640255941
0	4360	66.481659702495	0.050793499539
0	4478	68.494203959432	2.988382366411
0	4488	68.582125494085	0.512266710758
0	4491	68.595241692867	0.901019096375
0	4507	68.752362963377	0.544840418168
0	4521	68.86036649875	4.147011011782
0	4537	69.094364594884	0.229257133244
0	4559	69.326547252111	2.84299297884
0	4572	69.44044656059	4.742132471389
0	4604	69.861308743588	1.704038960245
0	4619	70.073577211325	0.794348289635
0	4628	70.178689277876	1.151173413913
0	4663	70.720307668543	0.274621439382
0	4703	71.181099087727	2.386717678581
0	4708	71.220952748115	0.583040329109
0	4754	72.161515529491	1.060564102724
0	4816	73.22901380858	0.656881201594
0	4828	73.403649138949	0.553165199916
0	4832	73.452470852516	3.006092467052
0	4883	74.221554045813	0.722151822207
0	5018	76.879333304465	0.566800484974
0	5072	77.547294687896	0.872877065555
0	5094	77.782927881186	2.001171719843
0	5140	78.380505277928	4.46118630363
0	5145	78.389423290737	0.947509440406
0	5210	79.399922111865	2.954641771051
0	5219	79.507001028253	0.630047177357
0	5326	81.223536821915	10.358982167503
0	5340	81.327427875302	4.375968180538
0	5395	82.207689314146	0.829163313992
0	5403	82.329041052431	4.523115760603
0	5431	82.820888758036	2.105120161689
0	5476	83.503524705782	2.279899772907
0	5503	83.917748700077	12.031978096006
0	5538	84.511775371618	5.855788115158
0	5554	85.085548165618	15.707958899614
0	5596	85.943131902167	3.914461330997
0	5618	86.312523304389	4.072651008518
0	5621	86.373308836581	6.467309396859
0	5645	86.998823336984	0.625206508222
0	5653	87.231430845355	9.819031521452
0	5686	87.783728639292	0.800499047852
0	5694	87.891695330549	1.335161082218
0	5765	89.329358847512	0.320141205167
0	5779	89.587087277598	4.364097131851
0	5828	90.633486386136	1.264620357654
0	5864	91.439866445054	1.783875705026
0	5927	92.187264938674	11.795531522168
0	5936	92.254671411861	0.682116684994
0	5951	92.464497146266	5.117060567122
0	5968	92.80445443288	0.873018647977
0	5997	93.237791683814	0.788380664464
0	6020	93.57222748048	2.875922006703
0	6038	93.947057184115	4.041922035482
0	6090	94.649428973989	3.135982344639
0	6129	95.393458181641	2.125992291993
0	6141	95.644712274752	3.510030206067
0	6158	95.808983415352	4.996525259501
0	6163	95.871950390069	1.706656031002
0	6172	96.022662322072	0.29425065967
0	6230	96.869690753975	7.465156222286
0	6278	97.636613318089	1.059918861592
0	6288	97.765089410969	0.575596225118
0	6295	97.828705155802	2.717115132201
0	6346	98.642844473637	0.49914236847
0	6363	98.868467587192	1.781471888368
0	6378	99.116612600578	0.244822482695
0	6455	100.518954181287	8.751849425218
0	6468	100.632229764569	2.112949853647
0	6504	101.363231100064	0.751225271999
0	6507	101.394316429664	3.886007384186
0	6555	102.165106484471	0.497070980742
0	6569	102.309897744491	3.59326793396
0	6576	102.4027828801	6.307301809532
0	6586	102.691325224477	1.186380119509
0	6605	102.918076114368	4.475265321818
0	6609	103.015988847865	6.573779655538
0	6662	104.132877363654	1.876811996318
0	6699	105.732612723735	9.62654533724
0	6767	106.791233016174	5.286620129317
0	6803	107.32844929175	4.562303893735
0	6861	108.253314161384	2.208782289858
0	6922	109.116888812709	2.765561375438
0	6981	109.857085614099	1.638232901113
0	6992	110.04617750303	1.895819685821
0	7029	110.549256879238	0.854415804182
0	7067	111.328151451153	2.129858739177
0	7102	111.743909868537	5.890665934044
0	7137	112.299069843094	4.486630074715
0	7151	112.511698046474	4.882745717036
0	7179	113.04984235418	6.787814438441
0	7335	115.775323992093	5.330364548783
0	7338	115.790476849563	6.976347738195
0	7372	116.461534572839	7.172307289822
0	7463	118.279603061476	2.974832369059
0	7467	118.30666610657	6.894596964871
0	7484	118.5343623586	11.106733511509
0	7503	118.674538990288	9.725298829159
0	7573	119.498394698923	0.868474168986
0	7586	119.581065895183	0.788052537754
0	7597	119.599774226989	9.111558395447
0	7605	119.685709564811	13.578498261957
0	7610	119.687073552354	4.933941779009
0	7641	120.167602101462	1.606552945196
0	7647	120.278919757414	1.668127680087
0	7680	120.891591200348	2.470775862813
0	7710	121.308029336161	6.793829907509
0	7725	121.555169227802	3.197484555535
0	7867	123.71022352236	13.960480123788
0	7954	125.492802238693	3.041773583645
0	7978	126.031527341125	1.781741784254
0	7992	126.276561849095	4.234301868902
0	7995	126.300113571705	11.947628980762
0	8002	126.463164737798	5.264782058297
0	8012	126.645128916635	7.247722114845
0	8026	126.790196664271	7.212123534544
0	8033	126.856476250052	1.270816918984
0	8074	127.748189821767	4.518960145805
0	8081	127.793661778693	5.930204602767
0	8106	128.294069574127	3.311278470533
0	8109	128.342089023718	7.490301340007
0	8126	128.554814191769	6.840834421907
0	8129	128.568199007184	5.869125823302
0	8153	128.801875406293	6.076601023009
0	8160	128.873049059891	5.954703463889
0	8171	128.997986106399	13.51586720124
0	8204	129.48825919057	13.428867662764
0	8208	129.542110005991	12.326360805482
0	8264	130.417920959533	4.608252889892
0	8279	130.678257585012	2.800058309555
0	8294	130.841634181028	10.858389984043
0	8301	130.958065950612	0.978764545396
0	8318	131.205914263289	2.779600326699
0	8384	132.234681757629	18.759576511539
0	8400	132.574670198244	11.830754318738
0	8446	133.449086872865	11.683594368908
0	8465	133.654957104587	10.198658911353
0	8545	135.373665004261	5.632095550166
0	8565	135.630321929356	27.705624904935
0	8608	136.22919913761	0.671377368342
0	8613	136.26360890143	3.273525451536
0	8620	136.307144017903	0.209037697356
0	8637	136.501708362164	13.35513095915
0	8654	136.733080279532	3.424946607591
0	8669	136.997315845293	4.289392469943
0	8684	137.186243289858	3.327982922927
0	8687	137.199708673666	0.700491688421
0	8692	137.247715095545	5.545838633786
0	8717	137.860638135459	1.917618493961
0	8737	138.12993684572	1.656103285849
0	8742	138.246386700643	0.381057380245
0	8765	138.723447143009	29.218907106945
0	8785	139.098420898546	0.61556495778
0	8808	139.654003498339	4.108938228429
0	8816	139.753539240692	17.313305626016
0	8834	140.109588819553	2.162184279273
0	8850	140.325406393599	0.402939775129
0	8865	140.540011291321	1.697934778073
0	8880	140.68612493601	0.510727942589
0	8913	141.255040787523	0.894966940194
0	8959	142.028122436209	0.990633858705
0	8963	142.051709159912	19.427899636508
0	9042	143.444029299452	5.960461112508
0	9121	144.482911027891	0.987814317587
0	9152	144.984606205171	3.91414100705
0	9195	145.85062413045	2.404747906867
0	9220	146.198760455482	0.971918361076
0	9237	146.4563412284	2.411184571223
0	9295	147.224775147608	2.123334352682
0	9305	147.38663307837	24.104593440908
0	9350	148.506625516119	4.006398245886
0	9373	148.874634407634	18.167851386181
0	9393	149.175223844431	1.413530230634
0	9413	149.523908517897	0.677042224201
0	9507	151.336304603563	7.86060152891
0	9558	151.875247051612	5.321490801988
0	9632	153.198782057097	8.773536836939
0	9647	153.362950935846	10.608172144932
0	9694	154.070255482535	7.405628217052
0	9719	154.416015808921	0.891406135184
0	9737	154.583367585234	13.568622436836
0	9768	155.119375206176	12.557305525109
0	9791	155.36900896042	2.51558695617
0	9818	155.792955599027	9.128886736802
0	9880	156.825759583858	4.951539780549
0	9885	156.882965988122	3.559393367079
0	9914	157.19561068656	2.488362857741
0	9922	157.266210864142	2.769344149023
0	9979	158.475183336136	1.510389221509
0	10001	158.645454870977	14.365764989063
0	10053	159.441655542388	12.607792060795
0	10061	159.505207438966	10.399043847094
0	10094	159.954015606499	7.496379705961
0	10170	161.162549640552	11.014856727798
0	10184	161.334213278372	12.895890395031
0	10255	162.710913706378	9.19624808632
0	10279	163.19799720539	1.087874848266
0	10390	164.840547693358	9.094588546972
0	10420	165.030055101037	1.528459511435
0	10433	165.263154573711	10.960354152896
0	10494	165.997840694341	18.973156488758
0	10547	166.748212383035	10.532413610304
0	10571	166.967977149632	15.375202146071
0	10577	166.995369008504	4.336353121437
0	10604	167.554434181095	10.562132262878
0	10624	167.837688470361	1.694463022079
0	10634	167.97763833116	3.583083076677
0	10671	168.399212354217	1.83137725074
0	10709	168.990964525652	2.446506011641
0	10728	169.146170599	3.36554177495
0	10735	169.263687153088	13.077232268076
0	10746	169.439494258614	8.788987027095
0	10757	169.592037829647	4.601758126511
0	10765	169.666854061551	2.332180796598
0	10782	169.841073597912	1.65336489969
0	10801	170.115700240939	18.603003598998
0	10817	170.32293768385	4.953657919641
0	10821	170.338738182913	4.732307498876
0	10835	170.44682377594	6.114179719127
0	10849	170.673178806194	17.635196627838
0	10858	170.814584588931	10.981290040652
0	10938	171.896444270613	18.222751716187
0	10960	172.230018345557	5.569634906734
0	10978	172.482406718769	28.04171199425
0	11036	173.503084961382	16.23847608827
0	11073	174.148072276736	19.979527020067
0	11108	174.637334817594	7.675116909881
0	11143	175.29573475835	4.330740198128
0	11148	175.345085462037	6.337108114452
0	11159	175.565244356095	1.333405600167
0	11178	175.878937024217	16.355362184814
0	11263	177.306948343162	20.255128336159
0	11273	177.38537838879	15.544983433768
0	11306	177.765265783434	13.837895539137
0	11330	178.033428138542	16.913176676947
0	11341	178.102958906199	1.560438675403
0	11344	178.169065521997	6.427228651876
0	11403	179.108852192087	0.72482207148
0	11424	179.382791025016	1.44877407095
0	11459	179.787469407622	17.609716552526
0	11503	180.161036172354	9.157533850051
0	11513	180.308416731375	28.506379321865
0	11546	180.734084258884	25.336469485696
0	11551	180.77192063757	15.764890748545
0	11570	180.954957267071	14.908404680425
0	11575	181.016432491674	1.079490255235
0	11602	181.355408420479	11.570740658486
0	11608	181.433680321116	1.942458293941
0	11617	181.515690395753	3.934079553456
0	11631	181.650231251338	9.600604670308
0	11654	181.91521792337	0.344875216983
0	11664	181.981922199515	2.441753719485
0	11677	182.145913627098	11.793564196014
0	11742	183.035011406991	0.817741782048
0	11760	183.244653653455	3.349975263431
0	11763	183.277716048138	1.646734264173
0	11768	183.378935879707	0.456221696202
0	11773	183.455206494467	1.266437801977
0	11802	183.898249142921	0.669270981059
0	11816	184.102103281154	12.130359416642
0	11852	184.608213911379	6.561394649026
0	11922	185.881021244873	11.23876348199
0	11930	185.915003580842	2.206119296313
0	11940	186.022262066102	1.996197108765
0	11943	186.036691753833	2.15903061566
0	11967	186.6121250775	6.593041974746
0	12024	187.513467751187	14.922110869421
0	12039	187.736455493812	1.020719795269
0	12055	188.095107267563	2.445731585386
0	12131	189.341409375059	1.971726151081
0	12137	189.374838418105	4.023110723827
0	12153	189.498726351795	0.741509920546
0	12171	189.720527520171	0.778044497278
0	12222	190.433523572692	2.723363943334
0	12250	190.851499306209	0.952300268732
0	12275	191.227471246766	0.602683586746
0	12281	191.318484445135	5.123074392124
0	12290	191.471074946182	0.306384264917
0	12333	192.152196028994	0.233787867009
0	12347	192.269197813309	2.063196783187
0	12357	192.426209350316	2.699728333868
0	12440	193.81392184088	0.672746796486
0	12455	193.941107779598	1.471349626908
0	12483	194.485979791764	1.20222081638
0	12495	194.614982314507	2.232084937873
0	12510	194.808502965475	0.928624675461
0	12516	194.868909720881	2.050324647108
0	12543	195.277806514515	2.529771047821
0	12552	195.404415226734	41.086858765746
0	12598	195.964999130746	0.869492457435
0	12642	196.756337170824	6.821290873195
0	12756	198.341440746171	0.69954393685
0	12765	198.491737137931	1.738853823212
0	12834	199.557309244915	6.334453885971
0	12853	199.904579487666	0.831108509487
0	12888	200.406754350305	0.501362838464
0	12912	200.662989043727	0.273022061286
0	12915	200.675910458633	6.040984693986
0	12935	200.989326257415	4.454154848058
0	12946	201.107389327369	0.936329580856
0	12972	201.428558818563	0.103993385137
0	12980	201.553109212668	7.674028842944
0	12994	201.788948836939	15.899219807356
0	13001	201.839360054063	9.007997177212
0	13016	202.14971431051	1.056939629866
0	13026	202.28107727436	10.789319685072
0	13076	203.091184086857	0.449661564061
0	13159	204.266598293464	4.755627315435
0	13169	204.405329765979	0.808286309189
0	13181	204.546342762041	14.765966563321
0	13184	204.57098732378	0.465585614647
0	13189	204.594616600984	0.408711244851
0	13196	204.654211223539	6.584492737959
0	13208	204.825038155641	1.539707020887
0	13214	204.916719756828	2.397684565741
0	13236	205.394776143474	7.82496871148
0	13289	206.632749591447	0.527930654434
0	13330	207.245297801419	0.05277618266
0	13333	207.291610891976	0.636357895541
0	13413	208.765583370276	0.03501305585
0	13473	209.978226825929	0.867083200099
0	13529	210.957460699816	1.183508502001
0	13555	211.232831179968	0.76094862657
0	13558	211.242192981188	0.744510566668
0	13576	211.480422240023	0.050429553525
0	13586	211.671500570986	1.610226843163
0	13595	211.708877576312	1.612469961736
0	13628	212.391937798553	1.745742280851
0	13691	213.401855462818	0.381267255353
0	13753	214.223782168572	2.550588798431
0	13773	214.466325153732	1.379801025909
0	13776	214.46836206261	0.143065580894
0	13828	215.629016969823	0.335975336477
0	13868	216.247146348073	0.577471084929
0	13877	216.399817614631	0.46947494523
0	13919	217.351167253775	0.791332447221
0	13963	218.447988211032	1.122980513927
0	13978	218.907097452084	0.294378819955
0	14077	220.643875742905	0.85076609119
0	14124	221.218532098674	1.537307832472
0	14150	221.485063172816	0.272709044778
0	14153	221.491688362931	2.178272405913
0	14171	221.794463478797	0.393339589499
0	14182	221.928772938081	0.175935688898
0	14197	222.173241351107	1.56094971441
0	14258	223.077745212987	4.025156730027
0	14268	223.137486069471	1.877443713464
0	14272	223.183070708879	0.789895138169
0	14317	223.785066503244	1.294011290144
0	14375	225.128778950015	0.883049845667
0	14441	226.284355247987	6.812992907221
0	14488	227.198108283152	0.866901681755
0	14522	227.807130573845	1.80072838641
0	14563	228.470590155373	4.921824565368
0	14592	229.024945566817	3.147404388944
0	14666	230.472904751079	4.594911727014
0	14684	230.798225754854	0.416727451451
0	14705	231.039384947278	4.83699978823
0	14777	232.166506980345	1.268452357288
0	14809	232.62200272662	0.392788473287
0	14824	232.800289662149	0.456506316307
0	14837	233.031518714923	1.288092419332
0	14875	233.462531922362	0.676002947587
0	14899	233.794712245492	0.497093175392
0	14906	233.828789505073	8.254514249462
0	14912	233.990183815489	0.75066041961
0	14943	234.570630095369	0.14665217767
0	15049	236.24350780422	8.635454849343
0	15054	236.282136248987	1.033646341051
0	15070	236.475517601757	1.005009007766
0	15077	236.579080525127	0.649837413869
0	15091	236.721163438937	0.362207176963
0	15103	236.853987855352	2.447879161452
0	15147	237.755938371665	5.996454238569
0	15182	238.198143274574	3.030878357287
0	15226	238.765746490146	0.945793666126
0	15235	238.829026827609	2.125687743707
0	15263	239.180586498717	1.302463129127
0	15280	239.438632449352	0.535751369509
0	15316	240.115157479624	2.280311912697
0	15334	240.337924362902	3.900862455726
0	15350	240.603003221574	0.92153439772
0	15412	241.544122498395	0.56403589651
0	15447	242.183690938691	1.999900004423
0	15474	242.558289524364	1.409663387371
0	15485	242.672518760458	3.125360517614
0	15510	242.889058020401	1.511590823439
0	15524	243.109585465128	5.861432794765
0	15564	243.693544677981	3.129936022088
0	15584	244.088944633087	1.387519031802
0	15616	244.677989445428	2.04070068765
0	15660	245.101806843626	2.30809109726
0	15666	245.174640478136	0.311455352422
0	15677	245.346406029853	0.475833687825
0	15713	245.982955682534	2.196101278404
0	15750	246.76946002537	1.672296559922
0	15757	246.885616881531	3.885325789907
0	15778	247.146619695866	3.89548534249
0	15792	247.318540273733	1.948054749193
0	15852	248.502281723923	6.299930152628
0	15970	249.921642369011	4.248234818674
0	15999	250.227122924865	3.11018834572
0	16004	250.252486790043	0.297865302251
0	16021	250.374030527561	12.148565318857
0	16043	250.631726321144	1.868701350935
0	16063	251.06172715406	10.428906720299
0	16077	251.232330628412	6.172572122828
0	16097	251.648260413134	1.38453186462
0	16134	252.358995130566	1.162333182095
0	16166	252.685357651651	3.342402946317
0	16224	253.859093929164	0.246523494561
0	16263	254.340134709075	0.266763187785
0	16296	255.147359680822	3.566695488776
0	16322	255.596655583992	0.427504114354
0	16342	255.968270114086	3.203580059021
0	16355	256.254388681861	5.053485727549
0	16366	256.407272569129	1.25330665639
0	16432	257.707255245319	0.715155506164
0	16445	257.904326875591	4.876221279057
0	16495	258.825648279088	2.101957939851
0	16510	259.099615436427	0.055804204864
0	16522	259.24646122267	5.195005294713
0	16541	259.711371389904	1.025311668608
0	16574	259.929813609851	0.198278507839
0	16582	260.012963272628	0.284406400793
0	16615	260.65258086257	0.513205762305
0	16660	261.50467366606	0.921687660812
0	16665	261.563792803247	0.808588018281
0	16727	262.506386108078	0.73215739993
0	16757	262.750718518087	2.813254632494
0	16800	263.352785479652	0.68704784251
0	16812	263.540876170431	1.711873742952
0	16824	263.726103009152	1.215991882158
0	16841	263.927362572906	1.746201170093
0	16850	263.993537741963	1.944751111224
0	16857	264.030002968095	1.428842371022
0	16868	264.114094917839	11.646058892875
0	16921	265.034599922455	0.613782213661
0	16994	266.522372305575	0.582174567335
0	17085	268.333189836691	1.259615244802
0	17089	268.391479474965	1.444630475572
0	17110	268.535584738528	0.887391524174
0	17189	269.799362008966	1.18207627872
0	17195	269.851525856172	0.316745852012
0	17281	271.5209406991	0.628053113732
0	17299	271.768279849932	4.19417706306
0	17302	271.815100890364	1.259492320033
0	17375	273.172119989624	0.579208099929
0	17454	274.617228879302	0.596881750432
0	17502	275.413059635361	2.599846953907
0	17539	275.959666809427	1.334817030042
0	17551	276.124200982137	4.600975825122
0	17560	276.192712883752	2.657922000028
0	17566	276.241748435724	9.235218758621
0	17594	276.545688034946	2.831294828294
0	17762	279.16804105051	1.062822120685
0	17798	279.644620296716	2.372904745993
0	17810	279.77229636372	2.299144967993
0	17873	280.727858731422	0.368299109173
0	17877	280.763809604378	3.159631176695
0	17916	281.403516827509	4.727260399657
0	17957	281.897724032081	1.844662154766
0	17962	281.953396913993	1.310458016485
0	17977	282.144559272609	1.047900290071
0	17994	282.346344347641	3.525601117175
0	18042	283.203226852477	8.274012805775
0	18091	283.957780404042	4.376505280799
0	18116	284.395998254834	3.473329572375
0	18120	284.405895640623	0.448947579307
0	18142	284.881170429806	1.274612592156
0	18177	285.30432993026	0.177461129446
0	18213	286.047739549122	0.443347541992
0	18275	286.837731729009	0.398163538128
0	18286	286.903728601593	0.761413058996
0	18323	287.349970629552	1.195810784886
0	18387	288.287247659016	3.990754620631
0	18398	288.413210361686	0.297378002537
0	18420	288.651857175995	0.804410561082
0	18424	288.667501016241	2.779414388107
0	18526	290.54946826283	17.200484728985
0	18545	290.873434052546	1.205369753338
0	18577	291.446516236402	1.25423934259
0	18580	291.447828205497	0.301771528599
0	18611	291.775303686305	0.182294263654
0	18616	291.799821877371	2.526732838266
0	18632	292.105030808615	0.333661144602
0	18691	293.216217553825	1.812486947062
0	18733	294.067472303999	0.768246304189
0	18757	294.390868350002	0.526261929916
0	18800	295.232524080701	1.072647037427
0	18848	296.16434294633	0.083134787529
0	18898	297.039983750294	1.357111190668
0	18953	298.134899498681	0.900036402412
0	18959	298.157483014128	3.160801868716
0	18987	298.68395897779	0.5402804162
0	19055	299.805451286597	0.889934430961
0	19058	299.813572614655	3.044041194004
0	19095	300.387574300491	0.92572435788
0	19110	300.532357480584	3.684583300711
0	19119	300.624833851802	4.712007183025
0	19140	300.900540721986	2.41800198581
0	19149	300.979311086797	1.09069619135
0	19221	302.108247879618	1.66721430728
0	19229	302.271198148514	1.295687656449
0	19274	302.998616209732	0.572925095329
0	19290	303.243830405864	3.68937421065
0	19294	303.328741330152	6.335202496381
0	19300	303.437386482382	0.472901530848
0	19325	304.020667785625	0.081604661169
0	19348	304.598033647331	4.370898652789
0	19354	304.700281317784	2.070948538898
0	19378	305.241734644816	0.158591659873
0	19419	306.023800928763	5.207289466743
0	19456	306.711181752641	0.131077954784
0	19463	306.798047873646	0.411932013263
0	19482	307.125962030301	3.111506603817
0	19526	307.689359205	5.688724162495
0	19553	308.065114319445	0.511174933169
0	19566	308.175474897943	1.701456688158
0	19584	308.394796428529	0.284054789553
0	19617	309.603559283542	1.632484306339
0	19632	309.850992905007	3.788859382617
0	19652	310.24764746162	2.75657921111
0	19673	310.598451536643	7.376783453337
0	19714	311.158367801776	3.046734358846
0	19727	311.349299958482	0.640635160523
0	19755	312.054528128704	0.34163172843
0	19800	312.510378668414	0.679671737883
0	19822	312.838903344783	0.15899512624
0	19859	313.445894011684	0.319542660134
0	19871	313.633413835969	0.414966876259
0	19881	313.698998964937	3.289132226252
0	19910	314.41631268272	2.152224011123
0	20061	316.952284792474	3.60325315202
0	20076	317.201096109403	0.767236678411
0	20090	317.534795530663	2.866925096607
0	20099	317.719761062522	1.87199305354
0	20107	317.827948664504	1.520312592642
0	20162	318.517478340482	0.640355340522
0	20190	318.960409469298	0.570477671518
0	20195	319.083224373017	0.604508374245
0	20207	319.303910795522	0.639925519691
0	20227	319.829769263724	0.553098449247
0	20396	322.863881896627	4.990028296157
0	20403	322.965430873599	6.847906949169
0	20418	323.213541973004	2.3306487276
0	20428	323.233116864738	2.261174097323
0	20449	323.492059828351	7.647420471148
0	20466	323.672843968029	2.723538425189
0	20471	323.712344222525	0.496789094746
0	20506	324.109834236066	9.551336687848
0	20535	324.576344563502	2.448788349636
0	20587	325.165930438619	0.299049120408
0	20592	325.169363222665	0.85967279383
0	20600	325.25854041645	1.814066001983
0	20637	325.79705933438	1.093294808649
0	20701	326.397477197906	9.98744587495
0	20759	327.365557547285	2.495636739865
0	20778	327.538307432719	0.692374302316
0	20781	327.56778112728	7.845472048438
0	20891	329.150726534462	1.90059437153
0	20910	329.4338138433	3.628544049559
0	20997	330.893553494829	0.461912058512
0	21040	331.602925035773	0.580748024957
0	21045	331.665375153154	0.829792676929
0	21081	332.34390927546	11.166993473016
0	21115	332.789484386134	0.564769876427
0	21119	332.814902722851	4.000742511323
0	21160	333.566532285347	3.237777906041
0	21164	333.70613489315	5.829701287438
0	21238	335.771405212371	6.123242421895
0	21280	336.698557381838	0.939782534542
0	21306	337.066545514438	0.910177009882
0	21310	337.154718922193	2.804797043277
0	21365	338.144469014893	0.427555283491
0	21407	338.826315098579	3.648096962464
0	21446	339.539646396615	4.130137964594
0	21475	340.000685132897	15.691451369917
0	21562	341.720010899101	5.154232681952
0	21584	342.202744027473	7.576068934514
0	21611	342.713621002128	4.146609701005
0	21694	343.845284850975	2.835094430365
0	21700	343.915797520961	6.715158043076
0	21770	345.114223163329	1.655153660675
0	21816	346.084597664758	10.802803270387
0	21846	346.848118130127	5.71771469923
0	21878	347.441322710033	5.017315856856
0	21885	347.517982467519	3.122120992668
0	21892	347.562625598897	3.14991114191
0	21896	347.585571916971	8.316236403281
0	21917	347.980512057119	11.153259565545
0	21936	348.309843990457	3.139988849833
0	21943	348.394537810988	10.880976887812
0	21951	348.533588929478	4.944080583753
0	22036	350.417424869072	0.875288997835
0	22081	351.138258536642	10.636250611861
0	22085	351.19563782734	7.449724071063
0	22098	351.367933308971	17.659935722284
0	22157	352.332196425798	9.628095763051
0	22167	352.407234952843	1.523610189614
0	22182	352.585689642268	14.979198692618
0	22190	352.705877119799	6.314232285026
0	22203	352.871055203685	1.561883205251
0	22210	352.938903254626	12.937979130005
0	22283	353.725295214812	0.492489770337
0	22299	353.934949165357	1.773745164829