file 189634 1441872366                                          
version 2
run General-0-20150910-10:05:29-4312
attr configname General
attr datetime 20150910-10:05:29
attr experiment General
attr inifile omnetpp.ini
attr iterationvars ""
attr iterationvars2 $repetition=0
attr measurement ""
attr network CloudDataCenterTS
attr processid 4312
attr repetition 0
attr replication #0
attr resultdir results
attr runnumber 0
attr seedset 0

vector 0  CloudDataCenterTS.sink  responseTime_0  ETV
vector 1  CloudDataCenterTS.sink  delayTime_0  ETV
vector 2  CloudDataCenterTS.sink  queuingTime_0  ETV
vector 3  CloudDataCenterTS.sink  serviceTime_0  ETV
vector 4  CloudDataCenterTS.sink  responseTime_1  ETV
vector 5  CloudDataCenterTS.sink  delayTime_1  ETV
vector 6  CloudDataCenterTS.sink  queuingTime_1  ETV
vector 7  CloudDataCenterTS.sink  serviceTime_1  ETV
0	795 24593 38 20118 0.817298619172 405.857066552251 631 0.043881177871 16.096080233928 1064.2731293916 4425.1731399871
1	25388 24598 38 20118 0.817298619172 405.857066552251 631 0.125647611995 0.981694825931 151.63703173061 46.138542939083
2	49986 20394 38 20118 0.817298619172 405.857066552251 631 0 11.946888344141 448.42179488047 1500.7029712862
3	70380 24565 38 20118 0.817298619172 405.857066552251 631 0.360863685109 5.771736415944 769.94066514843 1416.1811169863
4	94945 24704 62 20111 1.658936911344 405.769415266014 635 0.019599383016 14.06374805761 1039.6219003927 4116.0213982438
5	119649 24710 62 20111 1.658936911344 405.769415266014 635 0.125659443622 0.848939845279 145.72449944319 40.128201959766
6	144359 20547 62 20111 1.658936911344 405.769415266014 635 0 8.847850406319 426.16402857659 1329.4336417678
7	164906 24728 62 20111 1.658936911344 405.769415266014 635 0.359468281516 5.5087155011 775.53656189816 1407.0913915942
