version 2
run General-0-20150907-12:16:29-13997
attr configname General
attr datetime 20150907-12:16:29
attr experiment General
attr inifile omnetpp.ini
attr iterationvars ""
attr iterationvars2 $repetition=0
attr measurement ""
attr network CloudDataCenterTS
attr processid 13997
attr repetition 0
attr replication #0
attr resultdir results
attr runnumber 0
attr seedset 0

vector 0  CloudDataCenterTS.sink  responseTime_0  ETV
vector 1  CloudDataCenterTS.sink  delayTime_0  ETV
vector 2  CloudDataCenterTS.sink  queuingTime_0  ETV
vector 3  CloudDataCenterTS.sink  serviceTime_0  ETV
vector 4  CloudDataCenterTS.sink  responseTime_1  ETV
vector 5  CloudDataCenterTS.sink  delayTime_1  ETV
vector 6  CloudDataCenterTS.sink  queuingTime_1  ETV
vector 7  CloudDataCenterTS.sink  serviceTime_1  ETV
0	45	0.73357684205	0.73357684205
0	80	1.199265109843	0.525803614226
0	98	1.463485678686	1.065548426404
0	124	1.801941240105	0.135176914428
0	165	2.463065116954	1.370459969909
0	299	4.869683968744	0.910806692381
0	322	5.129028694033	1.537633628264
0	345	5.436012349264	0.12111842175
0	352	5.531166094809	1.004319347591
0	381	5.891952795993	4.975927218516
0	468	7.288634547705	2.684422960237
0	525	8.070328357564	0.477609979647
0	580	9.055954261498	7.638625940328
0	592	9.155690796978	2.786910829699
0	608	9.269251716414	2.371054683392
0	672	10.031054909456	4.203358038305
0	682	10.150252424869	0.39947657516
0	685	10.157559720561	4.770026779401
0	775	11.13164262815	5.081186509474
0	804	11.477209056204	5.893790709706
0	856	12.303642389724	0.868767378638
0	865	12.428590263715	1.854794251182
0	883	12.680517577179	2.435358471177
0	912	13.167625804166	0.489959614592
0	977	14.017562141104	3.000735896003
0	984	14.114825419918	4.925633720975
0	997	14.288350479228	0.676864234757
0	1032	14.822298437317	1.220968422243
0	1083	15.733606146717	0.533737161393
0	1157	16.999826156511	6.726003587298
0	1248	18.460233503695	1.753830596677
0	1255	18.58219035723	16.011241399416
0	1270	18.808317976177	9.050709837253
0	1282	18.967412300463	4.473055519786
0	1370	20.120270261751	1.169041119787
0	1437	21.166803764911	1.531779315069
0	1440	21.177465828551	0.745961301845
0	1455	21.418457326088	1.837706425493
0	1558	22.878364052422	0.738149936055
0	1575	23.057027326098	2.110205581699
0	1583	23.130520259397	12.381136202174
0	1590	23.176983642047	16.839261320001
0	1595	23.212339433907	5.943295518468
0	1620	23.435615676239	3.752129849109
0	1628	23.544858927779	0.391690402861
0	1689	24.385139621056	0.970536081094
0	1719	24.890558431633	0.946349433353
0	1759	25.357132454248	0.453785117201
0	1794	25.948209389859	1.072797079256
0	1828	26.405656515895	1.403394425119
0	1860	26.847075750512	11.077402783422
0	1965	28.319436537286	3.651330498012
0	1995	28.857279446413	1.623538850382
0	2042	29.4518912903	0.165643700057
0	2091	30.040128309878	2.422847886561
0	2137	30.88943683697	1.386463868073
0	2170	31.555311150218	11.653311316202
0	2192	31.944134066195	2.329683052976
0	2218	32.26957707607	0.372675749846
0	2221	32.286519154747	2.068490053222
0	2230	32.408677499382	10.349398426371
0	2271	33.24360739201	0.206126405604
0	2347	34.651941090302	5.002681241547
0	2392	35.372070167752	3.401370825083
0	2470	36.240948077491	1.748067896281
0	2480	36.398483789261	2.705463328971
0	2525	36.847557411442	0.814256506156
0	2609	38.180649549099	4.647416416245
0	2633	38.42824234985	1.194781626921
0	2721	40.081861003967	1.128333152959
0	2736	40.244484489847	1.229830004577
0	2744	40.278791521152	4.583007850656
0	2764	40.57559990102	19.915008932335
0	2773	40.625076109865	5.025728632581
0	2798	40.934607037997	5.322260688117
0	2824	41.343826432625	2.559375939039
0	2841	41.684676971581	3.017554402623
0	2895	42.593755364047	7.770623642963
0	2952	43.535858372803	1.016487978039
0	2969	43.745913069565	14.143956233002
0	2974	43.771613675778	7.841491767294
0	2985	43.882448533158	4.876077095098
0	3009	44.404129250301	18.612660798473
0	3033	44.910119370092	15.593981298392
0	3097	46.119780464829	9.303008862222
0	3109	46.287166651435	22.57041357555
0	3115	46.387665038571	9.667024156385
0	3138	46.700755711791	0.937519875384
0	3156	47.071286686006	15.718337576589
0	3159	47.087927914186	3.746269230854
0	3163	47.101617812016	1.402672094247
0	3207	47.961924428726	5.550602142259
0	3239	48.496249208659	0.382798580349
0	3247	48.666372455372	0.749673032623
0	3278	49.060893426	8.71995968297
0	3288	49.214211482276	3.771623085821
0	3305	49.528975421427	7.291029786854
0	3336	49.875707330839	2.138654860653
0	3360	50.176478919669	1.336987772134
0	3385	50.449213980745	1.52135442311
0	3447	51.358351060845	0.589631747945
0	3460	51.521117814235	16.041732096669
0	3494	51.817041422479	8.55554978639
0	3510	52.08286226511	2.323519817138
0	3525	52.273212073351	2.257322402582
0	3538	52.448774003829	1.946684129076
0	3586	52.926414768588	3.009492306259
0	3602	53.014560324413	1.329660057822
0	3649	53.733948096173	2.090125089309
0	3663	53.849290674384	0.868122767157
0	3691	54.107401701515	2.427369139594
0	3701	54.296729673649	0.412812548438
0	3715	54.483614494778	4.288244164821
0	3729	54.909468194634	3.363876130718
0	3739	55.074821372811	5.087414968275
0	3753	55.251748562744	1.751958108466
0	3774	55.650273816221	1.569327905037
0	3784	55.769658221621	5.100866677681
0	3807	56.191253579816	7.310331295822
0	3838	56.568088435075	3.770146173764
0	3847	56.694892388695	18.051113691559
0	3850	56.708251784376	0.413515137895
0	3917	57.829437700693	0.827809389443
0	3927	57.987898946664	9.227874388957
0	3932	58.011514067833	2.315093650562
0	3940	58.182711920273	2.208462046423
0	3988	58.907010197008	0.306254397373
0	3991	58.936219855721	3.288859199764
0	4036	60.031737088345	0.571446632816
0	4077	60.986767023479	0.146174340109
0	4165	62.706698077341	0.240427999222
0	4171	62.767069216848	0.120183208287
0	4190	63.158860316618	0.721386696907
0	4213	63.545618737809	1.034094924616
0	4248	64.073794007726	0.512136921236
0	4275	64.726608340274	0.427740141393
0	4361	66.436003978321	0.30735472021
0	4430	67.799683807954	0.87279803605
0	4434	67.838243159195	1.675826822646
0	4455	68.212959211875	1.144850083992
0	4499	69.031348257887	0.387469266124
0	4506	69.10903814299	0.733108548896
0	4586	70.803751479945	0.291457944231
0	4646	71.757139257769	0.372867022052
0	4649	71.804013072596	1.115835844168
0	4702	72.764484695895	1.076537192168
0	4731	73.185832524102	0.764796480479
0	4800	74.450870168855	2.264273203045
0	4919	76.269568903844	0.922737993907
0	4933	76.543672617203	0.733522407118
0	4941	76.61977978409	5.457174746373
0	4944	76.627466890472	6.952857438662
0	4984	77.379892260848	4.165177602379
0	4993	77.462085907929	3.576920387165
0	5024	77.793725685274	2.517267353051
0	5077	78.829115171588	8.914066607627
0	5123	79.448427603361	4.846248340426
0	5129	79.468790695799	4.402302216032
0	5152	79.736063581434	8.909649994735
0	5266	81.644294148701	4.116332242378
0	5300	82.128089253719	2.674362470087
0	5303	82.136230346942	1.069724163103
0	5345	82.674556263969	0.638025975191
0	5359	82.868410059048	7.765168390572
0	5381	83.097076972901	3.789625489864
0	5389	83.175386650922	0.914812377957
0	5407	83.434923010606	8.66901185403
0	5467	84.306629156529	12.679097350933
0	5477	84.543430105466	10.155706760416
0	5501	84.834735809603	5.32575108767
0	5533	85.304491631395	5.581286395067
0	5549	85.485656018246	1.958538734297
0	5588	86.135192707015	6.167433265377
0	5629	86.843560915198	6.49819556468
0	5637	86.951215233062	3.422744511824
0	5659	87.226263593238	0.854985393765
0	5667	87.289083700858	6.829059764522
0	5670	87.315203677043	17.789280989186
0	5704	87.913996900365	5.570024748339
0	5730	88.256096734259	1.063141917184
0	5777	89.137331507025	3.350460796339
0	5853	90.174774513503	0.790152539728
0	5873	90.484350438519	1.038023728991
0	5885	90.621848823386	4.492097136044
0	5897	90.707738963536	11.425245281712
0	5958	91.744773515602	6.798044004956
0	5974	91.81377933739	11.144709571583
0	5977	91.84094283995	0.596272656952
0	5989	92.001195965917	4.609266951518
0	6003	92.260503314789	2.426119939868
0	6017	92.37355010097	2.870958418253
0	6035	92.577176167726	0.841386892524
0	6039	92.594822625018	17.98017931422
0	6057	92.794150070011	2.546103733289
0	6060	92.812275503121	2.108656262364
0	6120	93.620362046409	0.412578817012
0	6246	95.960152879709	2.977226334285
0	6284	96.404046024118	21.708831423908
0	6313	96.88206595978	12.832673006132
0	6345	97.240892193937	1.851181883764
0	6351	97.298987229951	1.625925939854
0	6444	98.747713150115	9.385054793403
0	6525	100.004350257393	10.311503100395
0	6605	101.110765621163	15.272744019973
0	6657	101.959083601634	8.513695652845
0	6723	103.017359369896	0.273163108173
0	6813	104.140220805657	3.53335959119
0	6875	104.846070084529	2.050104760889
0	6934	105.773118921246	0.594557721837
0	6945	105.937698617232	3.189016661842
0	6953	106.045044509873	1.43363815133
0	7007	106.638259533555	2.285436638547
0	7011	106.648717431389	4.62859423164
0	7019	106.674363732929	1.741715875593
0	7124	108.26695094357	0.972866796369
0	7196	109.404899298334	1.010406713951
0	7213	109.662285499265	3.066730955374
0	7263	110.259032388722	6.887771138492
0	7311	110.843019553531	4.232261012758
0	7323	110.957889791658	13.96776280359
0	7338	111.126133402446	6.182376219101
0	7347	111.241247350766	4.963854688978
0	7361	111.394512905064	6.717000746607
0	7427	112.141277403806	1.023211504472
0	7437	112.276653901196	0.447167886205
0	7458	112.679889600663	0.937814585688
0	7488	113.147523768359	5.868481018925
0	7500	113.282412410544	7.562077116989
0	7520	113.500934614359	0.314541666515
0	7539	113.824868283667	0.251196892477
0	7578	114.280570493176	7.944642811725
0	7592	114.426406728544	21.636727274141
0	7603	114.565338621045	1.142831298879
0	7662	115.572368135923	2.612681897245
0	7761	116.848087592653	1.687454586727
0	7785	117.280812728335	0.517433681165
0	7791	117.32155554193	1.525117534845
0	7853	118.627684907809	3.899626431345
0	7901	119.491616192023	1.795995968088
0	7944	120.216820077305	3.608887061686
0	7947	120.226634870398	9.413348561485
0	7952	120.287669138772	2.818691150243
0	7977	120.739930623688	6.452131366378
0	8029	121.563265329744	7.647033899586
0	8043	121.665591000681	0.825706669981
0	8063	121.91376784078	18.635084617292
0	8099	122.589698627039	5.548803717212
0	8167	123.410899363043	2.711460610091
0	8172	123.458837061377	0.417949078329
0	8194	123.729311571224	1.287172066158
0	8221	124.056131364023	2.474767351134
0	8249	124.269289043504	4.148199935401
0	8268	124.430717090178	1.571174675233
0	8273	124.440765580289	2.751551646763
0	8322	125.236343593322	1.879881042976
0	8331	125.348609468244	2.26854658465
0	8356	125.617904239509	6.947269651998
0	8390	126.105657128062	7.85915594547
0	8413	126.498836413975	1.472253332746
0	8463	127.121864757508	4.347350886959
0	8500	127.537817462199	0.564493715519
0	8527	127.777748266068	2.160462485544
0	8630	129.267914725335	3.433745850058
0	8658	129.616255686434	0.415910676746
0	8666	129.711743093546	2.544102563751
0	8704	130.22358961443	5.707422742727
0	8717	130.356693887969	0.320855590685
0	8807	131.381113814488	2.725076891326
0	8868	132.410635258649	4.595266396891
0	8919	133.177251742975	5.147753866812
0	8956	133.72881021756	0.276401598815
0	9052	135.172254404803	12.45176356769
0	9062	135.31926143649	1.568898377047
0	9099	135.994152459055	0.847624437965
0	9113	136.164408605703	4.43110621118
0	9131	136.409740848075	12.633361547037
0	9167	136.991359440373	0.414940314446
0	9201	137.686519928378	4.158516096412
0	9211	137.890975083604	1.598322249592
0	9278	138.973174837382	0.943300557281
0	9321	139.38880588525	8.725242252218
0	9332	139.545412884866	0.638634704842
0	9424	141.240975059354	8.408290019999
0	9455	141.782067986765	1.870535498391
0	9505	142.531065291307	0.211868965212
0	9510	142.57280937854	2.06381282348
0	9520	142.673426382023	1.735968276221
0	9561	143.083244071014	0.474083777704
0	9570	143.23415834276	8.199833923435
0	9598	143.678439915293	0.273448362147
0	9659	144.653427096551	0.258973454659
0	9688	145.109311220671	0.592629132481
0	9740	145.986166359114	0.952481359554
0	9746	146.006328226622	7.76525222182
0	9761	146.361596832389	0.952640030867
0	9779	146.630680616554	3.589896051112
0	9787	146.710927649521	0.084860909812
0	9829	147.293514454721	1.027096101149
0	9861	147.874121893522	0.782975137322
0	9940	149.377725575941	0.701012056088
0	9997	150.180803727426	2.654781090946
0	10010	150.325081044763	6.58832864915
0	10042	150.711332273051	0.474409499262
0	10062	150.981159808395	2.575384641313
0	10099	151.630917047063	9.266001396948
0	10121	152.102219935825	2.666800557238
0	10171	152.748330552193	0.300834731046
0	10194	153.059626007893	4.482013148315
0	10240	153.931070359839	8.844853443829
0	10261	154.334494917795	17.537000705904
0	10273	154.505613729506	5.616954039491
0	10281	154.570881857311	4.672194023456
0	10349	155.580194726144	2.302838672969
0	10357	155.648755307863	5.217282504872
0	10392	156.075312252646	1.552324566509
0	10420	156.460558044777	9.183270397008
0	10476	157.099108453897	0.211233970371
0	10491	157.221293934378	0.72800553373
0	10506	157.379070550108	5.041436601712
0	10513	157.452950153341	2.192453309919
0	10528	157.667379555393	4.837123497325
0	10540	157.797261811922	0.650861821679
0	10576	158.340078908821	4.419151802741
0	10587	158.505486588961	1.55604135198
0	10600	158.695558723971	1.244108582627
0	10656	159.886745560814	11.56955259919
0	10724	160.963990654242	0.398824428909
0	10739	161.170141856445	0.320451443267
0	10778	161.486100733403	5.558082347818
0	10789	161.642069934826	14.802379386965
0	10815	161.909275708968	0.439160207425
0	10868	162.774703661818	0.931515661774
0	10883	162.935178128228	5.845627152195
0	10898	163.069308012245	2.435259265141
0	10906	163.169880279106	0.833997156787
0	10947	163.587235005977	0.970190671175
0	10979	164.242136033575	0.553622506215
0	10991	164.42367990119	0.847136854052
0	11010	164.663228192621	3.261190977764
0	11044	165.22866916459	0.756900734638
0	11087	165.757165001635	0.675094635754
0	11141	167.031908144415	0.374495420781
0	11179	167.756201475455	1.084598277432
0	11205	167.99031568979	1.216154004012
0	11338	170.173550539702	9.288598944228
0	11356	170.465830668684	0.250333634903
0	11362	170.507922644018	1.065328714693
0	11372	170.62475147823	1.3270842667
0	11378	170.660769090204	18.551814097533
0	11463	172.125978677447	3.815394811077
0	11466	172.152255620292	3.981279773063
0	11499	172.748264237578	4.842847149906
0	11622	174.399632220263	3.102628586955
0	11627	174.470600367127	0.553274638225
0	11647	174.769309697537	3.463702217656
0	11650	174.778582612691	1.400584981712
0	11672	175.073531312812	9.592146531713
0	11743	176.106909671784	1.324853702202
0	11750	176.291550270366	2.13894230336
0	11855	178.435165823456	1.121387397337
0	11861	178.497123251168	0.273297715701
0	11883	178.985885843786	2.381269738818
0	11921	179.568893568606	3.832212354051
0	11997	180.7188013305	0.713001913387
0	12012	180.841603377703	1.148491000574
0	12020	180.931818361345	0.218273190194
0	12035	181.145732906963	2.886223566187
0	12048	181.351422061249	4.546238281502
0	12083	181.986407533806	0.126397297671
0	12095	182.266524824731	2.347541344512
0	12108	182.358892592056	0.553554612689
0	12209	184.313927670201	1.594871006156
0	12254	185.226700906965	11.422697537279
0	12303	186.074013398544	3.758358667879
0	12321	186.336100748888	1.939303639678
0	12330	186.490694561141	3.438607146139
0	12383	187.301661332459	1.183040555425
0	12392	187.364062677307	4.822739313319
0	12432	188.059119806898	10.093336634277
0	12452	188.440684097943	1.182434842047
0	12503	189.287596789936	0.81724865701
0	12547	189.812976308409	16.800912197187
0	12576	190.403482400413	1.18199456355
0	12587	190.597887898605	8.728746612725
0	12598	190.835877360391	0.518576699002
0	12680	192.317565430812	0.355843435526
0	12759	193.951310181557	8.10769308657
0	12795	194.982943921004	7.920006665753
0	12801	195.040393564529	3.980236519316
0	12804	195.069310515947	0.982735564044
0	12858	196.220243106301	3.909488403467
0	12876	196.379471083643	4.471758861365
0	12895	196.712923532593	0.41157011709
0	12905	196.858644798258	0.495326215934
0	12984	197.893962408834	0.849030379762
0	13002	198.068305595941	1.100593569256
0	13020	198.455005242117	1.099582982354
0	13072	199.770855066335	1.945222137669
0	13078	199.825007671895	1.818708415292
0	13081	199.826996537397	7.487437109172
0	13169	201.751413913067	4.738851881345
0	13228	202.770390401968	22.247146269809
0	13237	202.894805505529	6.696236994427
0	13250	203.062403701942	1.016149388992
0	13292	203.869069794385	1.67268344176
0	13309	204.003626113564	4.213764458567
0	13314	204.07558525371	1.033865175312
0	13337	204.601027197232	1.336868469681
0	13346	204.737164421469	0.379711263374
0	13349	204.772598792571	10.925522111704
0	13412	205.90991237526	0.719913077952
0	13451	206.779220548826	1.187248521689
0	13470	207.013839437878	0.677765423229
0	13475	207.070210172367	0.848849918485
0	13566	208.736270388892	0.76532463964
0	13579	208.960395745929	4.254258967682
0	13591	209.17634482857	0.316378727008
0	13642	210.0676605597	2.109255295229
0	13680	210.778424480336	4.624293655396
0	13720	211.67799007328	0.15927502083
0	13775	212.550835838523	2.421338681882
0	13788	212.711756523518	10.20739263999
0	13795	212.882803468314	0.539460386768
0	13807	213.074313348379	5.357160176181
0	13834	213.50320146191	1.251480862737
0	13860	213.737900494157	0.531841400257
0	13893	214.565032891821	0.882016586235
0	13930	215.421954055143	0.119238689774
0	14044	217.911462118084	0.587541867699
0	14116	219.261886429453	0.446891030758
0	14128	219.411573950649	0.589132924198
0	14182	220.15106740417	0.517026139493
0	14196	220.365259714319	1.550622924571
0	14245	221.230175821294	0.950067167718
0	14338	222.732398767149	0.507081731418
0	14344	222.764515379101	1.860897908674
0	14352	222.770717796623	1.194269732446
0	14414	223.699275520942	0.793584309566
0	14422	223.782163784149	0.51350957797
0	14438	223.958986953354	0.675003765985
0	14464	224.512325246888	0.195298795152
0	14497	225.080635029651	0.372793714095
0	14576	226.795717104309	1.896491983918
0	14641	227.92637709472	0.914297510603
0	14657	228.159411708467	1.674343392919
0	14717	228.830541681106	1.402831819521
0	14763	229.434649921106	0.233867644352
0	14777	229.464193769466	0.085091365508
0	14811	229.975011502664	0.703271329073
0	14902	231.392814960777	4.192594849936
0	14905	231.432998753679	2.380968513875
0	14982	232.836044439085	1.368288933455
0	15017	233.620957949302	2.808598746689
0	15054	234.129966576979	6.368372606565
0	15067	234.338567456314	2.029267936082
0	15098	234.96113937048	2.957932464364
0	15135	235.332435896215	0.68563850394
0	15158	235.545900547652	2.58311329859
0	15198	236.082693414497	5.236666473734
0	15239	236.714374765814	3.904406354115
0	15275	237.382499746178	2.06842907085
0	15340	238.660448321826	5.991928229112
0	15346	238.674659748056	2.119619468001
0	15423	239.606145480411	1.937045098156
0	15461	240.041244825875	0.396956453806
0	15494	240.42784266596	2.241167194533
0	15501	240.508198937471	3.94868671935
0	15540	240.933282496964	1.462021511585
0	15560	241.224415838744	1.040634711824
0	15598	241.965998619055	2.210214037382
0	15623	242.4103109151	1.159356571654
0	15701	243.547136795436	2.858236538813
0	15710	243.621874617536	1.217787109159
0	15715	243.674142561367	1.021955801507
0	15719	243.711475811245	4.754949268256
0	15729	243.941451511316	9.648242407497
0	15755	244.383778586028	9.259366094234
0	15759	244.418162901535	1.846940715
0	15856	246.358571769	3.105171484447
0	15919	247.407672870937	3.889596787683
0	15957	248.082659054033	8.535731024865
0	15964	248.110996757104	1.213692519355
0	15983	248.394334956842	4.081154110994
0	15987	248.415518730878	2.608827616704
0	15996	248.530110011228	4.19363973584
0	16011	248.778904279692	4.332121391703
0	16032	249.048119798872	5.546870561285
0	16058	249.520054983762	3.018560048688
0	16082	249.923209858647	4.581715637283
0	16128	250.660250669028	0.471755247682
0	16175	251.228812392587	5.356043286348
0	16198	251.584130900255	0.773508906829
0	16205	251.679109029733	0.942990495358
0	16245	252.413686682956	1.495234629428
0	16290	253.203739245952	6.654472970303
0	16306	253.403591600783	7.892861163309
0	16359	254.381343811676	25.298334399888
0	16374	254.660906956126	2.827465576958
0	16385	254.712356731478	12.200667090657
0	16395	254.830251121861	2.05714453484
0	16424	255.197728086615	0.162386654904
0	16446	255.449673603889	4.354135512688
0	16453	255.495366409201	0.798802958145
0	16456	255.500904947482	5.126203038959
0	16505	256.121004775096	0.321675121852
0	16576	257.395851002517	1.627332262156
0	16588	257.523269147676	2.816532270021
0	16612	257.98991919458	2.668330948543
0	16672	259.071627375189	2.628362139013
0	16680	259.188661861539	11.025059108265
0	16690	259.347215846533	0.800206405564
0	16755	260.735388110602	2.465782702919
0	16786	261.281758654264	5.333346120331
0	16840	262.157876719473	0.421833867055
0	16858	262.426973953047	0.96414484246
0	16863	262.507437169748	6.728974375708
0	16867	262.529360123734	3.122123483377
0	16884	262.72727736105	5.603124814314
0	16911	263.186320751902	0.476830344489
0	16923	263.285370344374	3.390954557728
0	16927	263.365632664787	2.084917402767
0	16961	263.755982794754	0.330974806075
0	16973	263.883817005385	0.36721522639
0	16984	264.059667842934	0.632189196913
0	17028	264.865972985943	1.886412737086
0	17044	265.104920242654	5.05916066274
0	17048	265.143020528693	1.306206696822
0	17078	265.762077248515	0.324720125118
0	17126	266.543012231783	4.359740309266
0	17129	266.568762789778	0.37877921739
0	17165	267.218772912032	1.028605630811
0	17205	267.869584973059	1.209460159404
0	17242	268.809092164874	0.614135564317
0	17266	269.233283116618	0.234032554006
0	17273	269.31669377108	4.98348134869
0	17281	269.362892897411	3.012807091367
0	17302	269.658140335834	6.034115370072
0	17390	271.220991918444	1.921375948869
0	17422	271.657648277677	1.5151932752
0	17425	271.696407920718	2.023697148317
0	17501	273.313123628912	2.313114355056
0	17519	273.635832956192	4.16718386837
0	17530	273.791079411355	4.129322214843
0	17583	274.620564699862	0.654514695575
0	17591	274.767290044929	5.215556462478
0	17686	275.940280322728	0.787906634949
0	17694	276.0344399349	1.76359539174
0	17743	276.670488940074	2.681808449779
0	17791	277.420534032896	4.982789812046
0	17809	277.665084868466	5.136254620522
0	17812	277.678575365189	5.81232390862
0	17828	277.90010099666	4.059237826053
0	17887	278.917493758197	5.414657707843
0	17909	279.257481108106	8.977615327677
0	17952	279.763343359798	2.732056652543
0	18012	280.903331017434	5.021598411139
0	18042	281.334365816677	0.620050609924
0	18083	282.069737546772	0.95418927429
0	18093	282.262629288341	9.873609465197
0	18144	282.855954546844	11.443101612199
0	18161	283.111900142345	3.477355960509
0	18164	283.116540024908	0.858841021057
0	18216	284.073560896612	0.335781915173
0	18225	284.376183118984	1.790025030813
0	18238	284.663642839578	15.329568111624
0	18264	285.36329997967	7.597454532227
0	18282	285.801517199008	2.937336436539
0	18305	286.056051203199	6.535675701468
0	18390	287.531564052466	1.782457448184
0	18405	287.615666616245	9.487571293618
0	18443	288.386177759245	2.530645239503
0	18448	288.42224677301	2.107112460608
0	18452	288.423192249402	3.785760180983
0	18467	288.622658186498	15.356642395987
0	18475	288.732536480923	1.33892014575
0	18489	288.929231898358	3.057066048284
0	18523	289.353075283593	3.60851932363
0	18539	289.530569226058	0.346115458475
0	18586	290.319589202379	1.835206740521
0	18599	290.556638037166	4.325373179661
0	18614	290.75073568506	1.402256564839
0	18626	290.921491645889	2.113212142889
0	18639	291.110549004223	0.512209743757
0	18651	291.218141233122	1.586983674636
0	18702	292.470484326407	1.250945092597
0	18772	294.233130668371	1.415082436704
0	18782	294.450352556718	2.174034625787
0	18881	296.078098174255	0.273691234963
0	18942	297.580904690262	1.366078744015
0	18989	298.46119954924	4.586311471597
0	19000	298.570081978704	2.970761648147
0	19013	298.781777160471	3.31067535688
0	19030	299.02504475329	4.459558383609
0	19034	299.036285429701	3.429033400052
0	19044	299.217263377527	2.592800630386
0	19098	300.14356513109	0.581979847885
0	19124	300.636767745753	2.975444930461
0	19161	301.299236594908	1.385179822743
0	19199	301.952597417972	0.599675748493
0	19207	302.092378046544	1.123191241656
0	19290	303.983860311278	0.399795842434
0	19296	304.006559803023	3.13516864764
0	19323	304.448447123745	4.678645845652
0	19332	304.562196466731	0.27369646129
0	19360	305.014016273987	2.23698993728
0	19441	306.359046581972	0.695411121685
0	19447	306.481625479217	2.784758702086
0	19452	306.532262393729	0.256855731024
0	19471	306.837516677342	2.078614204549
0	19478	306.925441446289	0.712330174175
0	19497	307.313512526047	0.710429232711
0	19537	307.952132373659	1.231439284054
0	19630	309.259468017834	3.117800367289
0	19646	309.547260493079	0.433305754163
0	19654	309.587973541166	4.440931109114
0	19666	309.749627496956	8.727046455903
0	19692	310.011209426507	8.504139311614
0	19776	311.166743995262	3.015895786897
0	19828	312.036853101322	3.680786067098
0	19882	312.777696267771	0.63040890675
0	19886	312.832155967199	9.846306156014
0	19937	313.657284469424	4.444343267678
0	19976	314.128188593005	1.674637253627
0	20001	314.37900973309	5.92139301049
0	20013	314.540121011717	3.943892256314
0	20040	314.856339840915	7.92220558545
0	20090	315.66429954742	1.507072732315
0	20104	315.891761158637	5.235717309221
0	20160	316.55727564029	8.621117335197
0	20164	316.564464682056	3.501126910467
0	20195	317.128205675045	0.792389187364
0	20224	317.544975960394	6.025032446583
0	20297	318.70971421712	2.311373452058
0	20305	318.757606213498	3.126312842288
0	20321	318.921257174531	9.751929267115
0	20331	318.989474119621	1.507444255891
0	20343	319.129895680463	0.337299219854
0	20385	319.756141503425	9.071596721556
0	20406	320.088751155698	3.774644021499
0	20414	320.163399715789	1.473158251057
0	20493	321.459925911441	2.940600030605
0	20496	321.461665941052	7.156035306783
0	20509	321.611219669087	3.004562358013
0	20534	322.001537583881	2.859064798335
0	20547	322.214141258571	6.197682112271
0	20617	323.443581160087	15.064783491126
0	20632	323.523435282476	3.604481993169
0	20663	324.068605707217	5.146537804212
0	20666	324.077563486602	3.777122366572
0	20677	324.22618510358	6.227184868276
0	20684	324.282787986587	15.366795317991
0	20741	324.921961673532	5.439012482606
0	20759	325.021746477661	1.561611284628
0	20764	325.069549856061	0.19056902788
0	20854	326.938899836371	0.911806267478
0	20915	327.579989788138	1.094977335924
0	20918	327.589218157958	0.624843430229
0	20927	327.638817994988	1.376251540881
0	20935	327.71813204141	1.96199320501
0	20954	328.022824368142	0.343709983421
0	20980	328.32173396215	0.72710899471
0	21016	328.848558176187	0.653222434326
0	21023	328.908693974293	0.492627661261
0	21048	329.433633364995	2.395721615506
0	21058	329.473531157867	0.829353603321
0	21094	330.063858205873	0.11687936906
0	21104	330.292368028511	0.096343079006
0	21148	330.934830044234	0.40511978397
0	21195	331.748544835704	0.571076838234
0	21221	332.194730494646	0.100736946347
0	21234	332.310260495126	0.811588341167
0	21238	332.347857030731	1.08187017773
0	21300	333.27177483903	1.944884369589
0	21334	333.903826115261	1.653852910796
0	21355	334.182753386535	1.070949118237
0	21362	334.216602811818	0.259724737334
0	21392	334.717698726279	1.203122222653
0	21402	334.898665603427	1.787659255419
0	21427	335.377986388045	2.187591905298
0	21470	336.109733682359	0.224632719983
0	21567	338.345664089326	0.372951579062
0	21577	338.521534881657	1.903767468706
0	21589	338.849798660413	0.141233234161
0	21665	340.835938304568	0.401881891089
0	21671	340.971065594733	0.28775081368
0	21712	341.663283305346	0.040938908163
0	21730	341.922332296767	1.11262948693
0	21775	342.669603085735	0.158222733473
0	21844	343.68637280806	1.09768600987
0	21850	343.780813944993	0.45889917707
0	21884	344.133892630208	0.718249618353
0	21903	344.407560523667	0.55164294974
0	21914	344.545501304993	1.604000467822
0	21935	345.03745499874	1.056460440844
0	21984	346.092730316576	0.630618391103
0	22087	348.112548562518	0.81150172552
0	22102	348.244032006166	0.706245343039
0	22117	348.376069741693	0.454473798073
0	22136	348.687421773141	1.25100202756
0	22244	350.315521076533	0.776924803356
0	22287	351.109119353114	2.328838765336
0	22308	351.486728065274	0.686952305832
0	22384	353.618742896758	0.797716360782
0	22405	353.924967934486	0.537357693882
0	22465	354.854519559844	5.910313264331
0	22499	355.328572594634	1.964429733991
0	22553	356.497008043397	0.41656820979
0	22661	358.576475005731	2.333214866167
0	22717	359.544472236532	5.386013097739
0	22721	359.576417744258	5.612833234446
0	22754	360.000452766208	3.565534321162
0	22784	360.464118817606	1.296567802685
0	22798	360.595660485931	6.201897047116
0	22817	360.888430013724	3.958402157406
0	22831	361.132553370799	3.531231161354
0	22843	361.192864874519	1.854837991292
0	22861	361.379372603887	4.845479554833
0	22878	361.647612179529	0.491602765039
0	22920	362.380908295429	0.785099038957
0	22986	363.625093218267	1.110298956261
0	23023	364.403706428888	1.627586205503
0	23043	365.082122640785	1.554250230298
0	23079	365.673120216772	2.388987909087
0	23090	365.920084056841	0.402361894305
0	23093	365.922172151354	3.467788824657
0	23101	366.039080432116	0.896833208402
0	23107	366.156026014236	3.587399206568
0	23141	367.126155706412	2.019042369451
0	23188	367.834677333001	1.05165493533
0	23215	368.64628295287	1.079463386403
0	23237	369.403471458917	1.713987853537
0	23244	369.414395698056	0.129488982935
0	23326	371.028433204039	1.562647675019
0	23392	371.790587998626	1.160169222004
0	23423	372.284072596774	1.236425815117
0	23454	372.772052863664	1.764778250081
0	23471	373.14286501444	1.708313375214
0	23507	373.944297844413	6.171568277584
0	23555	374.761866538211	1.621607377291
0	23565	374.938809013627	4.613213893205
0	23585	375.212244106214	0.848802464523
0	23621	375.745573111931	4.536273315901
0	23625	375.763421856467	0.678159636677
0	23661	376.343854821546	5.875467251285
0	23674	376.507921125157	1.351256924913
1	45	0.73357684205	0.289775930066