version 2
run General-1-20150916-20:45:45-25753
attr configname General
attr datetime 20150916-20:45:45
attr experiment General
attr inifile omnetpp.ini
attr iterationvars $0=6287
attr iterationvars2 "$0=6287, $repetition=0"
attr measurement $0=6287
attr network CloudDataCenterTS
attr processid 25753
attr repetition 0
attr replication #0
attr resultdir results
attr runnumber 1
attr seedset 1

vector 0  CloudDataCenterTS.sink  responseTime_0  ETV
vector 1  CloudDataCenterTS.sink  delayTime_0  ETV
vector 2  CloudDataCenterTS.sink  queuingTime_0  ETV
vector 3  CloudDataCenterTS.sink  serviceTime_0  ETV
vector 4  CloudDataCenterTS.sink  responseTime_1  ETV
vector 5  CloudDataCenterTS.sink  delayTime_1  ETV
vector 6  CloudDataCenterTS.sink  queuingTime_1  ETV
vector 7  CloudDataCenterTS.sink  serviceTime_1  ETV
0	29	0.412955972118	0.412955972118
0	55	2.357104514601	0.765354514601
0	72	2.760316043228	0.372696043228
0	110	4.172410632441	0.193040632441
0	164	5.938545845699	1.163295845699
0	200	6.595653071446	1.024533071446
0	219	7.150150057103	0.783150057103
0	256	7.846552481824	0.683682481824
0	264	7.954336774826	4.770836774826
0	275	7.978832982933	0.020082982933
0	315	9.677569576386	0.127079576386
0	340	10.455963415238	1.701343415239
0	391	11.76050900775	0.61830900775
0	449	13.273844628732	1.335744628732
0	471	13.622328408544	0.888328408544
0	476	13.672543518035	0.142643518035
0	487	13.845773981283	3.499373981283
0	539	15.253122713876	0.131522713876
0	547	15.464680024415	1.138980024415
0	600	16.943423595121	1.025923595121
0	627	17.555110227811	0.841710227811
0	656	18.323384843905	0.814184843905
0	700	19.503250255314	1.198150255314
0	718	19.958682173459	0.857682173459
0	736	20.370368194525	0.473468194525
0	761	21.069275896071	0.376575896071
0	786	21.739657682894	0.251057682894
0	864	24.047879769933	0.967479769933
0	874	24.279950826921	0.403750826921
0	894	24.76249548131	2.47799548131
0	950	25.895037262818	1.222937262818
0	976	26.433958445763	0.965958445763
0	997	26.997889038758	0.733989038758
0	1010	27.251542619226	0.191842619226
0	1051	28.59739850275	0.74179850275
0	1072	29.267774866637	0.616274866637
0	1093	30.144799427228	0.697399427228
0	1191	32.64692970953	2.40372970953
0	1222	33.291941760727	0.661041760728
0	1243	33.44349897745	1.60849897745
0	1246	33.491073888294	2.451973888294
0	1257	33.799658123596	0.372958123597
0	1285	34.53496199111	0.31236199111
0	1302	35.210278056612	0.191778056612
0	1366	36.98584535697	1.17144535697
0	1387	37.505529365095	0.099429365095
0	1430	38.649191746454	0.447191746454
0	1457	39.285972114782	2.675772114782
0	1493	40.001842193866	0.208142193866
0	1502	40.218573547088	1.220673547088
0	1550	41.524628527274	0.935028527274
0	1558	41.811416928032	0.425916928032
0	1623	43.287394447644	1.106094447644
0	1627	43.363369728275	0.386169728275
0	1652	43.955615261696	0.182515261696
0	1707	45.473764435299	0.108964435299
0	1710	45.549385338758	0.980385338758
0	1793	47.424107276825	1.263407276825
0	1843	48.42885485179	0.67635485179
0	1901	49.555266030868	1.006966030868
0	1914	49.735807742808	0.391607742808
0	1943	50.394531428708	3.437931428708
0	1982	51.485604159481	0.549604159481
0	1985	51.522751628294	1.382651628294
0	2008	51.990699270026	0.258899270026
0	2030	52.754845901164	0.227145901164
0	2049	53.625722187238	0.302122187238
0	2142	55.993536942955	1.078236942955
0	2145	56.015753542193	1.896253542193
0	2148	56.097911104145	0.386711104145
0	2165	56.933996189051	0.426896189051
0	2180	57.342569578247	0.039569578247
0	2210	58.265370913463	0.166570913463
0	2280	60.457720451923	0.767120451923
0	2309	61.155663783313	2.260963783313
0	2342	61.935374247946	1.448874247946
0	2402	62.925621034239	1.643321034239
0	2418	63.339249960319	1.261049960319
0	2442	63.929765368562	1.055665368562
0	2482	64.72444748156	0.25864748156
0	2543	66.320895811402	0.263295811403
0	2548	66.449659137294	1.187959137294
0	2553	66.526360615925	2.856360615925
0	2604	68.057548400407	0.408248400407
0	2612	68.369729322966	1.516229322966
0	2637	68.978291039598	0.533091039598
0	2654	69.327493717448	0.086393717448
0	2695	70.326789718507	0.289789718507
0	2722	71.477139497408	0.644339497408
0	2755	72.327934899781	0.699234899781
0	2801	73.30725169478	0.88265169478
0	2870	74.653127107836	1.432627107836
0	2887	75.082129559063	1.065829559063
0	2894	75.130254057948	0.318054057948
0	2919	75.897291693022	0.289191693022
0	2940	77.007193208299	0.603193208299
0	2971	78.128691283992	0.132991283992
0	3002	78.939332890892	1.739532890892
0	3012	79.214131569438	0.422531569438
0	3059	80.621585406284	0.238285406284
0	3067	80.76285182835	1.17535182835
0	3112	82.451032621346	1.271832621346
0	3129	82.796938135132	0.821838135132
0	3138	83.002393977311	0.231493977311
0	3168	83.88427318976	0.31747318976
0	3271	86.615286401115	1.456686401115
0	3276	86.655819015151	2.293119015151
0	3287	86.810471578123	0.856071578123
0	3329	87.772187386919	1.021887386919
0	3333	87.821222355391	0.275022355391
0	3364	88.512051344448	0.169951344448
0	3394	89.324935732093	0.187035732093
0	3475	91.104376323083	0.374676323083
0	3479	91.134372647145	1.200572647145
0	3612	94.513963935567	2.988363935567
0	3639	94.939306107805	0.230206107805
0	3691	96.023390566594	0.518490566594
0	3726	96.885058588841	2.971858588841
0	3751	97.222270979899	0.921470979899
0	3765	97.578125081474	5.256725081474
0	3814	98.69530115083	5.57800115083
0	3831	98.962486625348	1.069886625348
0	3855	99.378127293693	2.281427293693
0	3893	100.206253683094	0.721953683094
0	3910	100.50040076034	0.22040076034
0	3913	100.561614455944	1.873214455944
0	3990	103.385028418809	0.717028418809
0	4009	103.877933561157	2.801933561157
0	4033	104.442623639744	2.570623639744
0	4096	105.852297256151	1.592297256151
0	4116	106.302860056478	0.451860056478
0	4143	107.24853292439	0.60153292439
0	4156	107.511357637468	0.068357637468
0	4189	108.434383550468	4.970383550468
0	4214	109.118672243794	0.879672243794
0	4217	109.151973214924	0.116973214924
0	4234	109.759497805661	4.704497805661
0	4246	109.934991594464	0.103991594464
0	4276	111.267468192212	0.640468192212
0	4294	111.685164427703	0.263164427703
0	4314	112.785776536354	0.567776536354
0	4352	113.894064245323	0.880064245323
0	4368	114.266711321259	0.456711321259
0	4411	115.772687009882	1.166687009882
0	4430	116.259368381737	0.061368381737
0	4466	117.544558525208	2.142558525208
0	4482	117.877732603344	0.883732603344
0	4493	118.145430062673	0.356430062673
0	4515	119.356079686973	0.771079686973
0	4529	119.65420582263	0.27320582263
0	4549	120.400336643465	0.223336643465
0	4601	121.789928975772	0.020928975772
0	4620	122.203778077859	1.230778077859
0	4643	122.677405530124	0.112405530124
0	4677	123.785158550982	0.424158550982
0	4709	124.776811149378	0.620811149378
0	4743	125.467769806615	0.515769806615
0	4797	126.924799154999	1.176799154999
0	4819	127.478284615211	0.138284615211
0	4849	128.216279562512	1.672279562512
0	4922	129.737238004618	1.601238004618
0	4933	129.961867133125	1.029867133126
0	4942	130.262656051839	0.534656051839
0	4966	131.064657661988	0.541657661988
0	4995	132.003893000305	0.684893000306
0	5056	133.193134415635	1.078134415635
0	5075	133.640183411131	0.729183411131
0	5168	135.692506058103	1.189506058104
0	5213	136.728015381808	0.633015381808
0	5259	137.697738072278	3.990738072278
0	5262	137.708686671883	0.818686671884
0	5281	138.152553733344	2.853553733344
0	5328	139.039716601319	0.557716601319
0	5332	139.098262507835	1.412262507835
0	5373	140.100635142521	0.822635142522
0	5392	140.573128682943	0.499128682943
0	5418	141.16911123608	0.29911123608
0	5445	141.933636261227	0.267636261227
0	5484	142.751567848886	0.289567848886
0	5520	143.869812580532	0.612812580532
0	5600	145.723931177191	0.874931177191
0	5615	145.992116191955	1.939116191955
0	5638	146.482260130533	0.041260130533
0	5645	146.612190153123	0.967190153123
0	5697	148.206546453076	0.173546453076
0	5743	149.014690598651	1.777690598651
0	5792	150.178175263533	1.349175263533
0	5816	150.508797810531	0.088797810531
0	5824	150.643588440021	1.019588440021
0	5857	151.629185622519	0.413185622519
0	5935	153.622547876985	0.814547876985
0	5985	154.857781282462	2.845781282462
0	5994	155.018411608943	0.618411608943
0	6073	156.813228623851	1.617228623851
0	6108	157.397107970564	0.610107970564
0	6119	157.544643273286	1.553643273286
0	6141	157.894080385919	4.290080385919
0	6144	157.90491235078	0.32191235078
0	6172	158.603758823416	0.224758823416
0	6205	159.714726828668	0.539726828668
0	6259	160.969758326149	0.202758326149
0	6272	161.227940978703	1.256940978703
0	6356	163.415215300137	1.852215300137
0	6412	164.452071375263	1.298071375263
0	6418	164.627650983219	0.677650983219
0	6433	164.92301412796	2.56501412796
0	6444	165.365064253392	0.619064253392
0	6479	166.608358075165	1.066358075165
0	6506	167.655826688438	0.521826688438
0	6522	168.009799642952	0.079799642952
0	6526	168.06638372966	1.72838372966
0	6555	169.361007827962	0.636007827962
0	6573	170.051589172186	0.530589172186
0	6592	170.647304892547	0.330304892547
0	6666	172.780659540596	1.667659540596
0	6789	175.61409410022	1.31709410022
0	6813	176.115506699058	0.227506699058
0	6825	176.485956872567	2.984956872567
0	6843	176.859145432889	4.154145432889
0	6852	176.978134381684	5.069134381684
0	6861	177.268478642077	0.584478642077
0	6891	177.795171422196	2.703171422196
0	6911	178.560655682432	0.284655682432
0	6932	179.159511712018	1.679511712018
0	6947	179.770683475272	0.698683475272
0	6974	180.346121065185	0.478121065185
0	6995	180.710175156909	0.046175156909
0	7057	182.600159024747	1.141159024747
0	7064	182.722237960712	0.467237960712
0	7131	184.208309456218	1.157309456218
0	7144	184.612993530744	0.765993530744
0	7170	185.075649727719	0.432649727719
0	7183	185.673056052017	0.234056052017
0	7217	186.800318067614	0.565318067614
0	7255	188.017278619571	0.986278619571
0	7286	188.807946373056	0.981946373056
0	7325	189.862540543355	0.444540543355
0	7385	191.163846189373	0.949846189373
0	7398	191.319643603409	0.309643603409
0	7402	191.430319773952	2.808319773952
0	7446	192.611240348286	0.805240348286
0	7459	192.969473395147	0.367473395147
0	7554	195.075606056183	0.882606056183
0	7602	196.185817158421	2.787817158421
0	7634	196.952640979508	1.963640979508
0	7637	196.974011596204	0.393011596204
0	7686	198.613967303968	2.828967303968
0	7721	199.367977692483	1.194977692483
0	7732	199.500586979402	0.531586979402
0	7748	199.796710716656	0.031710716656
0	7755	199.877225229247	2.500225229247
0	7782	201.116359696464	0.556359696464
0	7806	201.571483421948	0.215483421948
0	7862	203.174426712074	1.022426712074
0	7870	203.284932285983	0.336932285983
0	7915	204.261364454993	0.517364454993
0	7934	204.955845796916	0.415845796916
0	7951	205.534274870101	0.198274870101
0	7974	206.19950250943	0.06850250943
0	8010	207.313588603236	0.386588603236
0	8063	208.613749991122	0.890749991122
0	8098	209.541749357557	1.022749357557
0	8108	209.780042948256	0.465042948256
0	8208	211.879836146813	1.768836146813
0	8249	212.668623419187	1.761623419187
0	8270	213.13443056431	0.63643056431
0	8293	213.36062832928	0.06662832928
0	8316	213.985879967944	2.282879967944
0	8340	214.503814156973	0.413814156973
0	8368	215.213693700405	0.327693700405
0	8429	216.673163165248	0.991163165248
0	8463	217.550531243846	0.276531243846
0	8502	218.959711450837	0.094711450837
0	8526	219.6725041394	3.1945041394
0	8546	220.24008991248	2.17008991248
0	8569	220.654995231786	0.993995231786
0	8616	221.584967793284	1.127967793284
0	8620	221.605529644645	0.352529644645
0	8657	222.864537949806	0.815537949806
0	8667	223.311229478472	0.466229478472
0	8724	224.861081317994	1.220081317994
0	8751	225.630169672148	0.398169672148
0	8793	226.73635767435	2.29935767435
0	8808	226.880356383763	0.852356383763
0	8843	227.693291017992	0.869291017992
0	8849	228.047323402899	0.427323402899
0	8867	228.820335214544	0.404335214544
0	8885	229.342838714384	0.130838714384
0	8908	230.238658324421	0.230658324421
0	8931	231.40980542096	0.60580542096
0	8947	231.924382725307	0.325382725307
0	9010	233.783257857097	1.388257857097
0	9089	235.734467515679	1.747467515679
0	9096	235.866795740449	2.675795740449
0	9108	236.07728447558	1.29428447558
0	9145	236.812555333566	0.437555333566
0	9154	237.008223034925	1.429223034925
0	9186	237.909519201804	0.738519201804
0	9209	238.688989244755	0.722989244755
0	9255	239.634407947716	0.872407947716
0	9286	240.439099333535	0.085099333535
0	9336	241.666839275834	0.516839275834
0	9342	241.774738746022	2.216738746022
0	9399	243.324618035233	1.378618035233
0	9414	243.544441828367	0.006441828367
0	9417	243.605638075864	0.863638075864
0	9444	244.684491610965	0.351491610965
0	9462	245.242197763676	0.113197763676
0	9488	246.30826990883	0.38326990883
0	9515	247.416236367715	0.695236367715
0	9547	248.393920205068	0.876920205068
0	9643	250.668444262783	1.559444262783
0	9668	251.22981029371	2.91681029371
0	9682	251.458147042734	1.553147042734
0	9703	251.81751313485	0.32151313485
0	9714	252.013109646848	1.313109646848
0	9737	252.921904254201	0.629904254201
0	9757	253.5809402813	0.4929402813
0	9768	253.962915558261	0.078915558261
0	9811	255.557791933126	0.081791933126
0	9836	256.362536797227	0.090536797227
0	9843	256.432733752492	1.752733752492
0	9872	257.234272604563	0.167272604563
0	9893	258.562048023344	0.699048023344
0	9921	259.235846693113	0.576846693113
0	9971	260.519315902885	1.064315902886
0	10014	261.562190258218	1.311190258219
0	10031	261.932842271595	0.885842271595
0	10056	262.563950437019	0.720950437019
0	10094	263.611115941804	0.177115941804
0	10173	265.544333671028	0.518333671028
0	10178	265.581816120927	2.942816120927
0	10181	265.645972439924	1.415972439924
0	10221	266.823211732747	1.001211732747
0	10252	267.589889453972	0.971889453972
0	10288	268.299395741362	0.089395741363
0	10297	268.518669810973	1.104669810973
0	10315	269.540501807435	0.534501807436
0	10326	269.873175866307	0.072175866307
0	10362	271.138579636539	0.54157963654
0	10390	272.255780917937	0.066780917937
0	10431	273.543610200733	2.150610200734
0	10451	273.925380897526	0.940380897526
0	10489	275.204754343733	1.423754343733
0	10495	275.350298404755	0.773298404755
0	10510	275.655083804687	0.282083804687
0	10569	277.357519330641	1.189519330641
0	10577	277.443181346755	0.479181346755
0	10600	277.907412986826	0.147412986826
0	10636	279.24887641317	0.692876413171
0	10665	279.68767336162	0.335673361621
0	10704	280.869407250784	0.721407250784
0	10738	281.916497221178	0.176497221178
0	10783	283.144538361276	2.200538361276
0	10807	283.580270089073	0.249270089073
0	10820	283.983969396003	1.448969396003
0	10858	284.977184847408	0.850184847408
0	10875	285.317690576906	0.394690576906
0	10896	286.154703033927	0.435703033927
0	10917	286.627324050199	0.112324050199
0	10943	287.341587512411	0.030587512411
0	10992	289.074538409213	0.172538409213
0	11011	289.572409874923	1.465409874923
0	11036	290.089978462368	0.391978462368
0	11050	290.578107779835	0.084107779835
0	11081	291.894049273383	0.604049273383
0	11098	292.441421164536	0.355421164536
0	11131	293.335575776573	0.453575776573
0	11149	293.911887818805	0.233887818805
0	11176	294.713367674229	0.239367674229
0	11244	296.881161145371	0.816161145371
0	11262	297.519768187985	2.250768187985
0	11278	297.82018267962	0.95918267962
0	11354	299.832408654099	1.379408654099
0	11379	300.128655595799	0.879655595799
0	11388	300.243734945945	2.586734945945
0	11468	302.252829455955	0.616829455955
0	11474	302.376735177977	1.535735177977
0	11489	302.722035262065	0.290035262065
0	11493	302.768350264456	2.723350264456
0	11566	304.541851619093	1.313851619093
0	11571	304.735264337803	0.711264337803
0	11592	305.271946250103	0.451946250103
0	11615	306.354589552627	0.738589552627
0	11660	307.732473043267	0.524473043267
0	11665	307.797793613893	1.385793613893
0	11708	309.257179657398	0.458179657398
0	11718	309.566207054075	1.563207054075
0	11766	310.748896340899	1.153896340899
0	11791	311.258673413132	0.867673413132
0	11833	312.097812179794	0.910812179794
0	11860	312.843788286849	0.064788286849
0	11867	312.945457025987	0.962457025987
0	11896	314.169170000304	0.594170000304
0	11919	314.973443430223	0.603443430223
0	11966	316.480316759694	0.518316759694
0	12004	317.310951008297	2.144951008297
0	12046	318.319157429124	0.765157429124
0	12055	318.419321086681	1.661321086681
0	12067	318.796025152799	0.446025152799
0	12088	319.389296270428	0.243296270428
0	12150	320.881869666789	0.144869666789
0	12154	320.987629207122	1.045629207122
0	12241	323.536891007246	1.207891007246
0	12266	324.086884637125	2.553884637125
0	12272	324.180109112883	1.055109112883
0	12360	325.971803859612	1.254803859612
0	12384	326.429889861536	0.916889861536
0	12401	326.787984577792	2.866984577792
0	12465	328.274505365924	0.374505365924
0	12472	328.358313524797	2.049313524797
0	12499	328.914886520616	0.218886520616
0	12507	329.156711042596	2.052711042596
0	12555	330.441373096309	0.949373096309
0	12570	330.991775736679	0.703775736679
0	12586	331.236531261967	0.152531261967
0	12617	332.60477487425	0.72477487425
0	12660	333.629503718275	0.953503718275
0	12698	334.809920721734	1.338920721734
0	12718	335.227850741202	0.960850741202
0	12759	336.062346615753	0.999346615753
0	12766	336.156617974583	0.297617974583
0	12788	337.173608820321	0.518608820321
0	12829	338.456131271641	0.209131271641
0	12862	339.438737207843	1.987737207843
0	12892	340.211409858576	0.373409858576
0	12945	341.696637567465	2.653637567465
0	12956	341.960378575699	1.326378575699
0	12975	342.394926909344	0.168926909344
0	13025	343.603348414596	0.581348414596
0	13040	343.977709115888	0.159709115888
0	13052	344.38841254512	2.95841254512
0	13068	344.801441344987	0.187441344987
0	13119	346.085638012521	0.675638012521
0	13156	347.090480164701	0.885480164701
0	13234	348.874746662086	1.077746662086
0	13261	349.437051451634	0.844051451634
0	13266	349.464836129365	2.463836129365
0	13312	350.68537347865	1.29637347865
0	13317	350.772554795433	0.587554795433
0	13346	351.670973283041	0.689973283041
0	13361	351.933054943003	0.156054943003
0	13404	353.264383500255	0.692383500255
0	13430	353.895413026398	0.527413026398
0	13457	354.636399852064	0.472399852064
0	13475	355.24235762157	0.28235762157
0	13487	355.868962564988	0.112962564988
0	13514	357.154763341461	0.602763341461
0	13562	358.559617327578	0.415617327578
0	13580	358.959590615707	1.611590615707
0	13591	359.23192743176	0.29292743176
0	13622	360.174999958388	0.439999958388
0	13641	361.044826424549	0.513826424549
0	13657	361.335857021166	0.008857021166
0	13725	363.798379964337	0.879379964337
0	13788	365.540328444401	1.029328444401
0	13792	365.627598262863	1.912598262863
0	13833	366.691155820652	0.589155820652
0	13847	366.993271775159	1.687271775159
0	13853	367.086994706713	0.188994706713
0	13882	367.967890713261	5.844890713261
0	13913	368.816040009123	0.326040009123
0	13924	369.162556955192	1.468556955192
0	13962	370.355043614273	1.069043614273
0	14023	371.939755209467	1.061755209467
0	14078	373.090634088965	0.621634088965
0	14111	373.724464543208	0.459464543208
0	14148	374.357187340132	2.684187340132
0	14153	374.380590106577	4.298590106577
0	14158	374.441056838323	0.380056838323
0	14196	375.639846972697	0.782846972697
0	14207	375.72007765326	0.06707765326
0	14239	377.117350137192	0.668350137192
0	14255	377.414904937163	0.169904937163
0	14296	378.822372041261	0.782372041261
0	14317	379.376988604073	0.540988604073
0	14383	381.140111801435	0.712111801435
0	14397	381.324149463702	1.692149463702
0	14422	381.788742459701	0.564742459701
0	14454	382.583538472958	0.563538472958
0	14470	383.00242203537	0.18642203537
0	14504	383.697689140578	0.085689140578
0	14558	385.263542866071	0.856542866071
0	14561	385.284295874325	0.081295874325
0	14588	386.54590785412	0.54690785412
0	14656	388.410984634608	0.819984634608
0	14689	389.211522957766	0.824522957766
0	14719	389.941510266037	3.146510266037
0	14734	390.144463283187	0.165463283187
0	14748	390.50013682443	1.31713682443
0	14790	391.567519561156	0.793519561156
0	14811	392.211327532555	0.641327532555
0	14826	392.542222484023	0.176222484023
0	14885	394.635021505248	0.677021505248
0	14923	395.614536806942	2.452536806942
0	14938	395.873136568024	1.119136568024
0	14961	396.368270789066	0.818270789066
0	14971	396.74411806829	0.39811806829
0	15001	397.61762615492	0.47662615492
0	15073	399.33221703058	1.39521703058
0	15086	399.565669218609	0.832669218609
0	15113	400.470376247241	0.145376247241
0	15147	401.493076834894	0.372076834894
0	15163	401.957600200122	2.428600200122
0	15175	402.388032424018	0.471032424018
0	15194	402.856570326824	0.144570326824
0	15254	404.626106935639	1.118106935639
0	15263	405.142870316405	0.838870316405
0	15290	406.008341171517	0.112341171517
0	15323	406.967737496865	0.275737496865
0	15348	407.868764629757	2.768764629757
0	15380	408.553904933736	0.269904933736
0	15413	409.316267066811	1.828267066811
0	15448	410.329228236221	1.250228236221
0	15474	410.919237375521	1.044237375521
0	15486	411.328732894157	0.657732894157
0	15530	412.376105057725	0.113105057725
0	15555	412.945577269111	1.478577269111
0	15611	414.40730649458	1.34830649458
0	15642	415.131878729682	1.276878729682
0	15646	415.197558907369	0.546558907369
0	15682	415.995654817381	0.549654817381
0	15728	417.209984461936	0.967984461936
0	15735	417.475291674614	0.437291674614
0	15748	417.921061814338	0.087061814338
0	15790	419.533446741276	0.903446741276
0	15807	420.072683492657	0.646683492657
0	15846	421.220471971471	0.998471971471
0	15859	421.787178202045	0.769178202045
0	15922	423.140551543619	0.531551543619
0	16071	426.682253913073	4.869253913073
0	16100	427.253866875007	3.052866875007
0	16131	427.719321220687	1.926321220687
0	16134	427.748147970944	0.363147970944
0	16137	427.825867113655	1.236867113655
0	16144	427.870567663173	4.465567663173
0	16152	428.122019698341	3.125019698341
0	16197	429.230246279349	0.254246279349
0	16267	430.834429572806	2.654429572806
0	16294	431.47485635511	0.90685635511
0	16340	432.425026608845	0.265026608845
0	16406	434.210120267831	0.458120267831
0	16439	434.828680536723	1.872680536723
0	16463	435.366577908123	4.002577908123
0	16490	435.959286746203	1.412286746203
0	16500	436.124788067781	0.781788067781
0	16565	437.157601564628	7.385601564628
0	16629	438.455720390204	1.520720390204
0	16656	438.923440377083	1.192440377083
0	16681	439.565268049493	0.242268049493
0	16698	439.92362621582	3.78462621582
0	16729	440.643132747033	0.524132747033
0	16736	440.892623472533	2.365623472533
0	16780	441.647408793999	0.733408793999
0	16791	441.77091788521	0.06091788521
0	16838	443.413914226127	0.111914226127
0	16858	444.258366337035	0.160366337035
0	16871	444.802529037905	2.296529037905
0	16928	446.185866953885	0.495866953885
0	16957	446.597620656914	0.111620656914
0	16980	447.278370064849	2.384370064849
0	17005	448.013207641478	0.732207641478
0	17021	448.469668600608	0.392668600608
0	17055	449.41132466776	0.53832466776
0	17092	450.709271327129	1.040271327129
0	17101	450.7784580146	0.3134580146
0	17126	452.054300789687	0.793300789687
0	17178	453.551627346095	1.494627346095
0	17233	454.579084650508	1.726084650508
0	17252	455.075323435854	0.631323435854
0	17326	457.304236262215	2.064236262215
0	17341	457.592015337876	0.760015337876
0	17399	458.649377548341	1.021377548341
0	17440	459.509981692103	3.473981692103
0	17506	461.245082982248	0.434082982248
0	17509	461.294730451257	2.074730451257
0	17552	462.345630724078	2.330630724078
0	17582	462.856399883126	0.453399883126
0	17587	462.920013006171	1.313013006171
0	17618	463.574825857038	0.375825857038
0	17667	464.579508621441	10.931508621441
0	17676	464.686076670238	0.691076670238
0	17692	464.935956945634	6.511956945634
0	17740	466.061665513567	1.270665513567
0	17762	466.46697637038	0.08497637038
0	17781	467.036580347552	1.449580347552
0	17813	467.734202897099	0.556202897099
0	17854	468.855094521522	0.881094521522
0	17860	468.902563286585	0.132563286585
0	17884	469.665563337261	0.099563337261
0	17910	470.879684364888	0.517684364888
0	17937	471.624402225465	0.466402225465
0	17996	473.265623868959	0.516623868959
0	18026	473.826850806694	1.872850806694
0	18067	474.779256495505	0.438256495505
0	18144	476.524445711544	2.979445711544
0	18168	477.084517285649	1.947517285649
0	18179	477.310607362697	0.581607362697
0	18194	477.5399244981	1.6069244981
0	18207	477.749672730735	0.224672730735
0	18288	479.786177880372	1.465177880372
0	18316	480.533794583047	0.621794583047
0	18365	481.773698373433	2.657698373433
0	18383	482.204313165828	1.496313165828
0	18407	482.49056042505	0.19056042505
0	18411	482.519940698725	1.015940698725
0	18430	483.351226292975	0.255226292975
0	18461	484.59457057435	0.70257057435
0	18487	485.210715827132	0.522715827132
0	18518	486.340348507818	0.857348507818
0	18541	486.991739743443	0.712739743443
0	18638	489.096101240765	2.021101240765
0	18668	489.544678136855	1.673678136855
0	18692	490.103062044531	1.436062044531
0	18769	491.601633004483	2.138633004483
0	18778	491.768818111498	1.509818111498
0	18781	491.784454526568	0.729454526568
0	18794	492.115536272461	0.265536272461
0	18833	493.39870538092	0.75270538092
0	18863	494.117142804711	0.675142804711
0	18887	494.441082091014	0.203082091014
0	18927	495.878591190169	0.048591190169
0	18947	496.327698421566	1.293698421566
0	18976	497.072360827422	0.446360827422
0	19048	498.76209899493	1.34009899493
0	19059	498.963878687494	0.746878687494
0	19084	499.485129875685	0.472129875685
0	19147	501.018692320248	0.413692320248
0	19205	502.633999333267	0.436999333267
0	19233	503.31794759286	0.32494759286
0	19240	503.411036664802	2.010036664802
0	19264	503.83868794231	4.02968794231
0	19315	505.10684512296	1.31784512296
0	19320	505.295175618954	0.711175618954
0	19343	505.807962260867	0.427962260867
0	19362	506.248096873366	0.072096873366
0	19451	508.563728300008	0.795728300008
0	19474	509.037741876935	2.065741876935
0	19487	509.294761074387	0.730761074387
0	19530	510.456474953623	0.300474953623
0	19550	510.841822011835	1.481822011835
0	19590	511.831900641055	0.880900641055
0	19652	513.169302771215	0.626302771215
0	19667	513.430942187352	1.683942187352
0	19822	516.398023704798	3.059023704798
0	19844	516.686515258956	1.755515258956
0	19849	516.738953401362	2.603953401362
0	19903	517.993628360371	1.470628360371
0	19925	518.343796226332	0.229796226332
0	19956	519.070453279357	1.752453279357
0	19997	520.230271667241	0.524271667241
0	20107	522.257666115098	0.959666115098
0	20149	523.116420773187	7.389420773187
0	20170	523.741468427799	3.2394684278
0	20190	524.21500630299	5.305006302991
0	20193	524.228434034793	2.134434034793
0	20212	524.548600669647	0.067600669647
0	20237	525.017185833985	1.332185833986
0	20259	525.415985552154	2.525985552154
0	20286	526.190283630969	0.913283630969
0	20330	527.253560520094	0.384560520094
0	20337	527.646858514773	1.573858514773
0	20355	528.096742534416	0.431742534417
0	20451	530.488410398073	2.027410398073
0	20466	530.63153329582	0.57953329582
0	20520	532.168401042919	0.524401042919
0	20572	533.474992965323	1.034992965323
0	20577	533.559181815574	0.323181815574
0	20586	533.746699597988	4.489699597989
0	20622	534.95652953564	4.108529535641
0	20634	535.365263609182	1.333263609182
0	20650	535.673007499906	0.845007499906
0	20679	536.614555979483	0.195555979483
0	20762	538.587141885707	1.372141885707
0	20795	539.177880390903	1.166880390904
0	20825	539.788685681849	4.164685681849
0	20857	540.405015816949	0.80201581695
0	20903	541.717560165532	0.522560165532
0	20920	541.879276621748	1.480276621748
0	20943	542.608319866228	0.617319866228
0	20961	542.911624195155	4.104624195155
0	20964	542.958458315394	0.172458315395
0	21012	544.540413300284	0.958413300284
0	21028	544.889397494731	0.511397494731
0	21069	545.934860452766	0.760860452766
0	21120	546.849900906752	0.879900906752
0	21155	547.835835471469	0.273835471469
0	21171	548.146399590352	1.380399590353
0	21186	548.485920969017	0.127920969018
0	21211	549.26868353413	0.11568353413
0	21241	550.165246499299	0.2162464993
0	21278	550.927380560451	0.182380560451
0	21310	552.045928656474	0.504928656474
0	21344	552.998793974892	0.661793974892
0	21361	553.506848448861	0.373848448861
0	21439	555.520090803566	0.795090803566
0	21443	555.539771665425	1.610771665425
0	21482	556.319685338028	0.799685338028
0	21493	556.52081285847	0.20481285847
0	21573	558.849480051466	0.145480051467
0	21583	558.976190982784	1.068190982784
0	21610	559.526417489749	2.41441748975
0	21624	559.965072236485	0.465072236485
0	21664	560.972663241452	0.676663241452
0	21741	562.941911466485	1.054911466486
0	21752	563.160128633628	0.477128633628
0	21798	564.330356283709	3.238356283709
0	21832	565.021411310791	0.746411310791
0	21842	565.132597976378	1.653597976378
0	21948	567.529663927485	2.458663927485
0	21961	567.730602951215	1.067602951215
0	21973	568.023037820929	2.156037820929
0	22081	570.417649679142	0.571649679142
0	22114	571.199462633962	2.945462633962
0	22133	571.576118403203	2.526118403203
0	22142	571.667777369057	0.229777369057
0	22239	574.095189259519	1.861189259519
0	22256	574.618598829645	1.588598829645
0	22272	574.759624318721	4.117624318721
0	22286	575.062303028136	0.441303028136
0	22320	575.85427834906	8.39527834906
0	22332	576.139877226245	0.722877226245
0	22341	576.225544392796	2.399544392796
0	22392	577.538094725244	1.325094725244
0	22395	577.563870880458	0.554870880458
0	22410	577.8289434356	0.0239434356
0	22482	579.42733539737	0.82633539737
0	22515	580.251433770015	0.854433770015
0	22520	580.278716644124	0.085716644124
0	22575	581.728781207954	0.740781207954
0	22601	582.043062882206	0.259062882206
0	22642	583.538059615921	0.958059615921
0	22653	583.61293398677	0.23693398677
0	22667	584.394021108079	0.222021108079
0	22686	585.163251936735	0.195251936735
0	22737	586.676025341881	0.116025341881
0	22774	588.109427381176	0.754427381176
0	22790	588.368972177576	2.604972177576
0	22799	588.691357709578	0.540357709578
0	22833	589.717390043574	0.770390043574
0	22869	590.676205245542	0.137205245542
0	22904	591.558917575286	1.815917575286
0	22925	592.0334435212	0.6984435212
0	22940	592.313115545893	0.182115545893
0	22996	593.778685996282	0.851685996282