file 4154 1441875022                                            
version 2
run General-0-20150910-10:49:36-6754
attr configname General
attr datetime 20150910-10:49:36
attr experiment General
attr inifile omnetpp.ini
attr iterationvars ""
attr iterationvars2 $repetition=0
attr measurement ""
attr network CloudDataCenterTS
attr processid 6754
attr repetition 0
attr replication #0
attr resultdir results
attr runnumber 0
attr seedset 0

vector 0  CloudDataCenterTS.sink  responseTime_0  ETV
vector 1  CloudDataCenterTS.sink  delayTime_0  ETV
vector 2  CloudDataCenterTS.sink  queuingTime_0  ETV
vector 3  CloudDataCenterTS.sink  serviceTime_0  ETV
vector 4  CloudDataCenterTS.sink  responseTime_1  ETV
vector 5  CloudDataCenterTS.sink  delayTime_1  ETV
vector 6  CloudDataCenterTS.sink  queuingTime_1  ETV
vector 7  CloudDataCenterTS.sink  serviceTime_1  ETV
0	795 500 38 456 0.817298619172 9.541652342835 14 0.105143349358 2.510172695745 11.476528529675 14.675710508776
1	1295 500 38 456 0.817298619172 9.541652342835 14 0.127635558839 0.510115186914 3.172686959594 0.84661315498542
2	1795 368 38 456 0.817298619172 9.541652342835 14 0 0.367398509802 0.778107890725 0.24465507308788
3	2163 499 38 456 0.817298619172 9.541652342835 14 0.406131735274 2.438027268676 14.315971679356 19.036649934658
4	2662 394 62 434 1.658936911344 9.066923670086 11 0.253696125504 3.562981691482 16.938516301652 34.636721703474
5	3056 392 62 434 1.658936911344 9.066923670086 11 0.132961535546 0.440609992867 2.652206802936 0.72208904554781
6	3448 312 62 434 1.658936911344 9.066923670086 11 0 0.629885542165 2.902121882032 1.4591520883682
7	3760 394 62 434 1.658936911344 9.066923670086 11 0.432352820899 3.011353823941 16.719374616684 30.79768163416
