file 1116766 1442742362                                         
version 2
run General-1-20150920-11:45:59-10961
attr configname General
attr datetime 20150920-11:45:59
attr experiment General
attr inifile omnetpp.ini
attr iterationvars $0=42653
attr iterationvars2 "$0=42653, $repetition=0"
attr measurement $0=42653
attr network CloudDataCenterTS
attr processid 10961
attr repetition 0
attr replication #0
attr resultdir results
attr runnumber 1
attr seedset 1

vector 0  CloudDataCenterTS.sink  responseTime_0  ETV
vector 1  CloudDataCenterTS.sink  delayTime_0  ETV
vector 2  CloudDataCenterTS.sink  queuingTime_0  ETV
vector 3  CloudDataCenterTS.sink  serviceTime_0  ETV
vector 4  CloudDataCenterTS.sink  responseTime_1  ETV
vector 5  CloudDataCenterTS.sink  delayTime_1  ETV
vector 6  CloudDataCenterTS.sink  queuingTime_1  ETV
vector 7  CloudDataCenterTS.sink  serviceTime_1  ETV
0	821 149379 63 202091 2.550679231794 10796.115903795545 3581 -20.532186649072 34.647487994783 1198.553726276 68181.28870571
1	150200 147519 63 202091 2.550679231794 10796.115903795545 3581 4.3473617e-05 6.139489274501 2192.5558410949 2728.2925465569
2	297719 113891 63 202091 2.550679231794 10796.115903795545 3581 0 19.444458446264 1985.0870808916 9757.0867400455
3	411610 147550 63 202091 2.550679231794 10796.115903795545 3581 0.001246142442 21.385862832712 7738.0695154156 33306.174845047
4	559160 149547 66 202120 3.01737346447 10798.215637000246 3582 -21.236833767091 33.0784268069 425.10871256223 59162.827899737
5	708707 147640 66 202120 3.01737346447 10798.215637000246 3582 3.6343077e-05 4.221580278142 2172.6537165589 2553.9449962052
6	856347 112741 66 202120 3.01737346447 10798.215637000246 3582 0 21.247188956021 1556.649069546 6821.7244135167
7	969088 147678 66 202120 3.01737346447 10798.215637000246 3582 0.000413951459 20.090773806903 7419.4430921878 30838.108055605
