version 2
run General-3-20150916-20:46:03-25765
attr configname General
attr datetime 20150916-20:46:03
attr experiment General
attr inifile omnetpp.ini
attr iterationvars $0=9632
attr iterationvars2 "$0=9632, $repetition=0"
attr measurement $0=9632
attr network CloudDataCenterTS
attr processid 25765
attr repetition 0
attr replication #0
attr resultdir results
attr runnumber 3
attr seedset 3

vector 0  CloudDataCenterTS.sink  responseTime_0  ETV
vector 1  CloudDataCenterTS.sink  delayTime_0  ETV
vector 2  CloudDataCenterTS.sink  queuingTime_0  ETV
vector 3  CloudDataCenterTS.sink  serviceTime_0  ETV
vector 4  CloudDataCenterTS.sink  responseTime_1  ETV
vector 5  CloudDataCenterTS.sink  delayTime_1  ETV
vector 6  CloudDataCenterTS.sink  queuingTime_1  ETV
vector 7  CloudDataCenterTS.sink  serviceTime_1  ETV
0	25	0.083997097051	0.083997097051
0	44	1.892748049628	0.300998049628
0	62	2.57807353401	0.19045353401
0	112	4.077692274571	0.894192274571
0	150	5.116461893097	0.341211893097
0	175	5.621509096468	1.642139096468
0	247	7.217000248073	0.054130248073
0	263	7.644460594008	1.277460594008
0	295	8.448573986493	0.489823986493
0	309	8.565602070041	2.994482070041
0	355	9.787066535297	1.032446535298
0	455	12.023978422125	0.881778422125
0	473	12.339400123347	2.788910123347
0	511	12.963553841071	1.025453841071
0	515	13.049269582056	2.702869582056
0	527	13.468793541719	0.734793541719
0	575	14.331461977697	0.801561977697
0	590	14.701423065731	0.375723065731
0	607	15.494738420637	0.373138420637
0	658	16.800002416223	0.882502416223
0	667	16.969446593833	0.256046593833
0	679	17.611930080185	0.102730080185
0	703	18.529769234903	0.224669234903
0	756	20.181313401086	0.284413401086
0	803	21.694083415405	1.001383415405
0	821	22.167121390755	3.066121390755
0	842	22.522953166218	1.034353166218
0	867	23.288986043318	0.208586043318
0	882	23.806667411983	1.522167411983
0	920	24.819325177964	0.943125177964
0	968	26.197794088262	0.729794088262
0	983	26.544373053685	1.872273053685
0	1011	27.186149467849	0.922249467849
0	1020	27.362614482659	0.302914482659
0	1042	27.935887363101	0.080287363101
0	1144	30.85530261796	2.20380261796
0	1160	31.076335330828	0.833135330828
0	1194	31.952793114775	0.117793114775
0	1270	33.85933916063	0.432639160631
0	1293	34.400530747451	1.769630747452
0	1302	34.618557314999	3.579457314999
0	1314	34.936018308712	0.713418308712
0	1326	35.02709588563	0.00859588563
0	1346	35.58878419166	6.14138419166
0	1440	37.688955591908	0.282855591908
0	1454	38.0296631938	1.4194631938
0	1462	38.183584436416	2.369184436416
0	1486	38.93845543723	0.73645543723
0	1508	39.717891837401	0.719991837401
0	1631	42.73861695802	1.35311695802
0	1639	42.91125825235	3.11755825235
0	1650	43.010604322726	2.421004322726
0	1672	43.383600270704	1.202300270704
0	1693	44.019525683438	0.246425683438
0	1699	44.164576711893	1.187376711893
0	1754	45.647002291818	0.282202291818
0	1797	47.025820106082	2.456820106082
0	1839	48.232037610938	2.071337610938
0	1869	48.676240441826	0.923740441826
0	1874	48.735149521365	0.186849521365
0	1903	49.703765846859	0.359565846859
0	1962	51.043785914228	4.087185914228
0	1995	51.76982746179	0.83382746179
0	2007	52.161485313535	0.429685313535
0	2036	52.925802541858	0.398102541858
0	2091	54.546987054529	0.427487054529
0	2098	54.690052584036	1.366452584036
0	2116	55.125843824727	4.985743824727
0	2124	55.348663895898	0.433363895898
0	2144	55.875597632784	0.164397632784
0	2258	58.536102341987	1.233102341987
0	2287	59.33517268059	0.44047268059
0	2344	60.813696078329	0.327196078329
0	2419	62.846877122066	4.748077122066
0	2454	63.344942498782	1.266742498782
0	2487	64.092661794278	1.218561794278
0	2501	64.365415690028	7.858315690028
0	2538	64.924138957286	5.233538957286
0	2546	65.04371932592	0.57791932592
0	2556	65.199630563431	1.529630563431
0	2571	65.418800138343	0.157100138343
0	2582	65.536734828989	4.254434828989
0	2636	67.429211611064	0.575711611064
0	2654	67.838596614862	0.189296614862
0	2693	68.763684236797	2.706084236798
0	2698	69.075688659125	0.630488659125
0	2733	69.888868504328	0.647768504328
0	2752	70.538545962961	0.501545962961
0	2777	71.083396938714	0.250596938714
0	2812	71.886383968508	0.257683968508
0	2825	72.606069288982	0.181469288982
0	2854	73.74835500962	0.52785500962
0	2892	74.932197515276	0.915897515276
0	2914	75.613811428835	0.801611428835
0	2926	76.125354611453	0.517254611453
0	2991	77.674633819945	1.270633819945
0	3000	77.876688411666	0.676888411666
0	3016	78.227274500847	0.231574500847
0	3042	79.139992212192	0.348392212192
0	3063	80.13924575426	0.55174575426
0	3083	80.982036290408	0.598736290408
0	3096	81.374098673369	0.194898673369
0	3163	83.435533937207	0.664633937207
0	3205	84.294837357674	2.319737357674
0	3227	84.515413133825	0.948613133825
0	3243	84.987565494419	0.624865494419
0	3301	86.689589792708	1.530989792708
0	3322	87.053904098332	1.099504098332
0	3340	87.568862238107	0.818562238107
0	3347	87.709862701622	0.163662701622
0	3368	88.502747850637	0.160647850637
0	3386	89.279301517909	0.141401517909
0	3476	91.401183584428	1.467383584428
0	3532	92.566379426753	1.040779426753
0	3565	93.51329616425	0.39599616425
0	3576	93.778247553872	3.048547553872
0	3608	94.587735141199	2.266335141199
0	3715	96.617074126435	1.112174126435
0	3730	96.949004299895	3.035804299895
0	3743	97.162537406735	0.065837406735
0	3750	97.272863582373	2.563763582373
0	3776	97.906764213976	1.605964213976
0	3787	98.194083792224	0.301483792224
0	3804	98.878588073185	0.190188073185
0	3828	100.042716115745	0.558416115745
0	3852	100.931625479546	0.651625479546
0	3870	101.5231562614	0.4471562614
0	3897	102.378368974473	0.506368974473
0	3964	103.870493343576	0.406493343576
0	3983	104.379228848277	0.119228848277
0	3996	104.67755591268	2.00955591268
0	4064	106.952562777969	1.101562777969
0	4086	107.452480502661	2.397480502661
0	4089	107.528946112296	0.881946112296
0	4100	107.737102034177	0.294102034177
0	4143	108.864542894806	0.625542894806
0	4162	109.176945378115	0.141945378115
0	4188	110.022581464158	0.191581464158
0	4217	111.263072013326	0.636072013326
0	4236	111.647636255325	0.225636255325
0	4272	112.98028570507	0.76228570507
0	4287	113.164174027193	0.150174027193
0	4313	114.004584171522	0.194584171522
0	4377	115.819398540426	1.213398540426
0	4409	116.792756350815	0.594756350815
0	4473	118.70801621894	0.91901621894
0	4509	120.025988379792	0.644988379792
0	4523	120.180453222853	3.186453222853
0	4561	121.351048049196	1.174048049196
0	4577	121.656627461349	6.254627461349
0	4593	121.870890651736	0.897890651736
0	4612	122.277572945842	3.692572945842
0	4619	122.425114437387	0.656114437387
0	4646	123.23008163002	0.66508163002
0	4747	125.950775363454	0.998775363454
0	4750	125.978471919969	2.617471919969
0	4793	127.163171779144	0.619171779144
0	4817	127.542599451177	1.794599451177
0	4829	127.91075386101	0.57075386101
0	4858	128.732861621331	0.596861621331
0	4884	129.565164927787	5.409164927787
0	4915	130.218884365733	1.286884365734
0	4943	130.880990408049	0.357990408049
0	4954	131.114005711898	1.386005711898
0	4983	132.06058667998	0.741586679981
0	5041	133.283187577337	1.168187577337
0	5099	134.529805635837	0.822805635837
0	5112	134.797536248047	0.294536248048
0	5133	135.560910732819	2.649910732819
0	5164	136.459530078884	1.160530078884
0	5175	136.693900163933	0.598900163933
0	5226	137.889027924065	0.203027924065
0	5239	138.008551234695	1.118551234696
0	5270	138.87689108292	0.39489108292
0	5288	139.522569533552	0.244569533553
0	5336	141.082947715096	1.008947715096
0	5381	142.241600554288	0.575600554288
0	5451	143.724214870013	1.262214870013
0	5458	143.793174653341	2.923174653341
0	5467	144.025658985782	0.768658985782
0	5503	144.640933363084	0.587933363084
0	5532	145.197603118877	0.348603118877
0	5560	146.072602244988	0.427602244988
0	5622	147.751637171902	1.310637171902
0	5628	147.778110427715	0.541110427715
0	5658	148.648572296807	0.615572296807
0	5712	149.775114989174	0.946114989174
0	5724	150.116102758072	0.492102758072
0	5739	150.713022065453	0.293022065453
0	5817	152.864091703919	0.852091703919
0	5832	153.361847649943	2.145847649943
0	5852	153.851996753904	1.043996753904
0	5858	154.046760991161	0.442760991161
0	5875	154.862606329062	0.462606329062
0	5904	155.605214500366	0.409214500366
0	5915	156.024173370554	0.033173370554
0	5931	156.867160875186	0.080160875186
0	5975	158.747087679124	1.164087679124
0	5996	159.250804080013	0.871804080013
0	6007	159.478255111698	0.303255111698
0	6059	160.779886823792	0.808886823792
0	6068	160.972072155038	0.205072155038
0	6099	162.130970875657	0.567970875657
0	6142	163.090397157654	0.732397157654
0	6156	163.20813025103	0.05413025103
0	6196	164.407019098918	0.457019098918
0	6265	166.106952004052	0.564952004052
0	6310	167.295239659728	0.161239659728
0	6317	167.442602355352	2.696602355352
0	6373	168.669322020171	2.331322020171
0	6451	170.160708447675	1.435708447675
0	6458	170.260605371531	2.330605371531
0	6461	170.316301566461	0.795301566461
0	6477	170.654486209622	0.337486209622
0	6531	172.14376384689	0.23476384689
0	6547	172.608974243891	1.495974243891
0	6560	172.800010366304	0.095010366304
0	6587	173.630953408981	0.129953408981
0	6659	175.680538035002	1.383538035002
0	6678	175.941787508327	0.849787508327
0	6686	176.024992394786	0.136992394786
0	6712	176.831818268325	0.147818268325
0	6762	178.289415732882	0.809415732882
0	6809	179.744105670094	1.468105670094
0	6839	180.443488720481	0.575488720481
0	6846	180.488459134904	1.416459134904
0	6889	181.626478853919	0.167478853919
0	6919	182.436715104709	1.772715104709
0	6922	182.452363492954	0.197363492954
0	6964	183.760746075809	0.709746075809
0	7018	185.186824712913	1.339824712913
0	7042	185.68467448563	1.04167448563
0	7045	185.850139211293	0.411139211293
0	7068	186.982513156139	0.747513156139
0	7110	187.921235314002	0.890235314002
0	7121	188.188641936323	0.362641936323
0	7145	188.928494392931	0.306494392931
0	7184	189.944449382693	0.526449382693
0	7215	191.04687442685	0.83287442685
0	7253	191.927723852751	0.917723852751
0	7289	192.784585567617	0.182585567617
0	7302	193.131995982788	1.325995982788
0	7324	194.021875772493	0.623875772493
0	7342	194.587466461628	0.394466461628
0	7377	195.910808824864	0.125808824864
0	7395	196.34774352372	1.35874352372
0	7415	196.998977673107	0.417977673107
0	7440	197.649740910075	0.272740910075
0	7456	198.60506065756	0.43206065756
0	7470	199.036126829174	0.067126829174
0	7497	200.361071483105	0.596071483105
0	7510	200.615713766881	0.055713766881
0	7535	202.121173315157	0.765173315157
0	7552	202.336354931695	0.184354931695
0	7574	203.558071619138	0.610071619138
0	7585	203.777909990012	0.033909990012
0	7628	205.381519627294	0.045519627294
0	7666	206.768897527616	0.637897527616
0	7683	207.221606204204	0.294606204204
0	7695	207.376779394946	2.836779394946
0	7754	209.227128514842	1.504128514842
0	7757	209.237142374885	0.718142374885
0	7768	209.416149752031	0.101149752031
0	7805	210.849313497619	0.738313497619
0	7824	211.133022820874	0.226022820874
0	7870	212.544959010814	0.046959010814
0	7877	212.757253742625	1.054253742625
0	7911	213.951812530939	0.657812530939
0	7936	214.556852011158	0.466852011158
0	7952	215.269083095241	0.383083095241
0	7975	215.858086311181	0.176086311181
0	8005	217.019290859617	0.541290859617
0	8019	217.349531973732	0.075531973732
0	8052	218.278594768406	0.208594768406
0	8097	219.661871524263	0.796871524263
0	8108	219.899564044189	0.238564044189
0	8143	220.93843423326	0.48143423326
0	8198	222.245873257586	0.992873257586
0	8205	222.277074642418	0.228074642418
0	8248	223.697986712141	0.056986712141
0	8259	223.865887217296	1.020887217296
0	8272	224.617952270301	0.180952270301
0	8295	225.307777171846	0.075777171846
0	8314	226.10350949544	0.07550949544
0	8335	226.937491786131	0.113491786131
0	8398	228.611069736256	0.991069736256
0	8410	228.79524025137	0.37924025137
0	8456	230.068200026628	0.856200026628
0	8471	230.308803934825	0.300803934825
0	8563	232.623839236975	1.024839236975
0	8610	233.865155874381	1.470155874381
0	8618	233.947094033871	0.756094033871
0	8637	234.25032905924	3.44632905924
0	8671	235.084698662008	0.301698662008
0	8679	235.489787105374	1.502787105374
0	8691	235.68072434012	0.10172434012
0	8716	236.802556374992	0.427556374992
0	8727	237.21405883428	0.04305883428
0	8750	238.134281511733	0.168281511733
0	8780	239.490843963401	0.728843963401
0	8815	240.377490288702	0.819490288702
0	8849	241.218498262399	0.864498262399
0	8855	241.39591575249	0.24591575249
0	8870	242.242397799209	0.296397799209
0	8901	243.294388426149	0.552388426149
0	8917	243.654854811845	0.116854811845
0	8940	244.426318840835	0.093318840835
0	9006	246.713635645118	1.584635645118
0	9027	247.049265198954	0.328265198954
0	9039	247.488762579777	1.563762579777
0	9053	247.747840057892	0.230840057892
0	9074	248.44428946106	0.13128946106
0	9091	249.505810064271	0.396810064271
0	9151	251.452252010749	1.547252010749
0	9177	251.915603867998	0.419603867998
0	9197	252.604661644498	0.312661644498
0	9208	252.939118391596	2.239118391596
0	9230	253.294974927523	0.206974927523
0	9252	254.119256674295	0.235256674295
0	9286	254.890419751225	0.210419751225
0	9312	255.858277612349	0.382277612349
0	9366	257.591734358983	0.524734358983
0	9369	257.625090888054	1.353090888054
0	9389	258.337874648289	0.474874648289
0	9409	258.932104585334	0.273104585334
0	9470	260.973610753405	1.518610753406
0	9484	261.176923553693	0.129923553693
0	9517	262.177727581917	1.926727581918
0	9551	263.235722169831	0.596722169831
0	9570	263.716841146217	1.873841146217
0	9573	263.722874017891	0.288874017891
0	9597	264.536238233906	0.306238233906
0	9655	266.426809175065	1.400809175065
0	9658	266.464795041354	0.642795041354
0	9680	266.901601684439	0.283601684439
0	9735	268.582153703843	1.168153703843
0	9762	269.287665514714	1.077665514715
0	9795	270.179518308065	0.378518308065
0	9823	270.865497706002	1.859497706003
0	9866	271.923161845089	1.32616184509
0	9909	272.807862241742	0.618862241742
0	9937	273.309260256608	0.324260256608
0	10019	274.775566911449	0.994566911449
0	10033	275.186402013979	0.609402013979
0	10053	275.476282222529	4.08328222253
0	10064	275.777485965455	0.404485965455
0	10093	277.008005111011	0.840005111011
0	10128	277.93566139582	0.17566139582
0	10138	278.038235211101	1.074235211101
0	10164	278.824247785504	0.268247785505
0	10196	280.222933368598	0.870933368599
0	10210	280.644222698026	0.496222698026
0	10237	281.311936498875	0.367936498875
0	10259	282.086475681332	0.346475681332
0	10334	283.960980833546	1.425980833546
0	10424	286.217718892725	2.090718892725
0	10472	287.378119264873	0.863119264873
0	10485	287.665022713545	0.354022713545
0	10512	288.15168857598	4.82068857598
0	10516	288.235840318987	2.516840318987
0	10529	288.53811010394	0.43111010394
0	10543	288.902545553826	3.979545553826
0	10585	290.157000028619	1.255000028619
0	10637	291.534136630098	1.040136630098
0	10642	291.649451764162	0.359451764162
0	10670	292.269179591672	2.571179591672
0	10683	292.775977888632	0.689977888632
0	10726	293.815765068457	0.137765068457
0	10751	294.441153137393	1.559153137393
0	10822	296.422820359725	0.357820359725
0	10839	296.744512470835	1.475512470835
0	10861	297.239802638488	2.765802638488
0	10872	297.548398774238	0.687398774238
0	10897	298.264536876114	0.607536876114
0	10920	298.760650033009	0.307650033009
0	10945	299.725682447367	0.476682447367
0	10980	300.664771665285	0.619771665285
0	11007	301.373869189644	0.532869189644
0	11038	302.152402725425	0.516402725425
0	11055	302.509579239063	0.077579239063
0	11089	303.608266906351	0.380266906351
0	11127	304.477521651769	0.453521651769
0	11164	305.573822997157	0.753822997157
0	11186	306.01393862732	0.39793862732
0	11249	307.622216741233	0.414216741233
0	11270	308.058830595431	1.646830595431
0	11311	308.811010538822	0.808010538822
0	11396	310.481198429016	0.886198429016
0	11412	311.00740805035	2.20840805035
0	11435	311.464792561345	1.073792561345
0	11455	311.914886190515	0.727886190515
0	11491	312.806387301609	0.823387301609
0	11518	313.627349802734	0.848349802734
0	11552	314.551232588943	0.181232588943
0	11558	314.748018870476	1.173018870476
0	11596	316.262232837845	0.300232837845
0	11602	316.315387578828	1.149387578828
0	11627	317.214705613777	0.456705613777
0	11674	318.948818073231	1.394818073231
0	11724	320.344993357748	0.402993357748
0	11746	320.954869505019	2.604869505019
0	11751	321.049058102455	1.903058102455
0	11817	322.731655933537	1.198655933537
0	11876	324.255259659627	1.130259659627
0	11884	324.579955481351	3.842955481351
0	11898	324.767234220856	0.050234220856
0	11903	324.895058714444	2.566058714444
0	11914	325.192217200939	1.271217200939
0	11936	326.173383256382	0.660383256382
0	11966	327.150145124206	0.046145124206
0	11976	327.48683911151	1.17783911151
0	12008	328.674149830409	0.774149830409
0	12050	329.508325975035	0.812325975035
0	12091	330.514855463402	1.022855463402
0	12102	331.03640374979	0.74840374979
0	12144	331.989103314412	0.905103314412
0	12151	332.178667357539	0.298667357539
0	12177	332.895120847994	0.219120847994
0	12249	335.284477430976	1.813477430976
0	12282	335.973413232411	0.910413232411
0	12330	337.516761803233	1.657761803233
0	12341	337.73961455189	1.08461455189
0	12386	339.032013756117	0.785013756117
0	12400	339.158680591778	4.891680591778
0	12455	340.548274971907	0.710274971907
0	12458	340.585508433315	1.542508433315
0	12468	340.660077474198	3.209077474198
0	12480	340.948443152182	0.314443152182
0	12548	342.511591274745	0.285591274745
0	12557	342.651370092785	1.221370092785
0	12577	343.045216444004	0.023216444004
0	12681	345.578596995276	0.964596995276
0	12688	345.70290562954	1.88490562954
0	12697	345.984878006696	0.574878006696
0	12719	346.477960119038	0.272960119038
0	12747	347.262524431935	0.261524431935
0	12778	348.413130277692	0.616130277692
0	12811	349.293505335376	0.700505335376
0	12822	349.434949387677	0.045949387677
0	12844	350.457224432005	0.272224432005
0	12870	351.721560365321	0.740560365321
0	12889	352.189357944668	0.412357944668
0	12925	353.513816285083	0.941816285083
0	12987	355.155119484175	0.991119484175
0	13026	356.061645543901	0.305645543901
0	13057	356.943905604293	3.575905604293
0	13066	357.068304391305	2.108304391305
0	13070	357.077709994559	0.525709994559
0	13099	357.69120206792	0.34320206792
0	13145	359.157158431039	1.013158431039
0	13152	359.256652581238	0.317652581238
0	13183	360.103307101166	0.368307101166
0	13208	360.864992091632	0.333992091632
0	13233	361.4629119241	0.1359119241
0	13253	362.583496538616	0.460496538616
0	13294	363.754589474823	0.835589474823
0	13299	363.922874581872	0.207874581872
0	13355	365.834398041596	1.323398041596
0	13397	366.752407545576	1.446407545576
0	13421	367.11860112483	1.01660112483
0	13430	367.52557328846	0.62757328846
0	13446	367.929171751058	0.235171751058
0	13513	370.072681020257	1.582681020257
0	13573	371.237575415563	1.155575415563
0	13583	371.344277969466	0.466277969466
0	13600	371.701673464107	2.415673464107
0	13617	372.09944464795	0.42644464795
0	13651	373.203972147452	0.734972147452
0	13714	375.039889817343	0.182889817343
0	13730	375.229234785656	1.964234785656
0	13734	375.276317674414	1.215317674414
0	13770	376.437112084632	0.784112084632
0	13803	377.293644022856	0.048644022856
0	13806	377.307166541618	0.858166541618
0	13889	379.69328265304	1.65328265304
0	13912	380.331628106777	1.495628106777
0	13951	381.277229198191	0.849229198191
0	13965	381.489559801736	0.265559801736
0	13968	381.676023390707	2.044023390707
0	13989	382.389940361178	0.369940361178
0	14016	383.606401566328	0.790401566328
0	14043	384.293939970245	0.681939970245
0	14101	386.015810912342	0.812810912342
0	14140	386.807681618826	2.400681618826
0	14171	387.594471646494	0.799471646494
0	14181	387.770903382644	0.179903382644
0	14222	388.670184928294	2.671184928294
0	14234	389.004858743234	0.617858743234
0	14278	390.04544554875	0.86244554875
0	14303	390.759155836628	0.780155836628
0	14348	391.949177977028	1.175177977028
0	14351	392.064406612108	0.494406612108
0	14401	393.604071937067	0.442071937067
0	14406	393.691131337821	1.325131337821
0	14432	394.413289642615	0.455289642615
0	14461	395.16513578083	0.41113578083
0	14505	396.265234798148	0.715234798148
0	14526	396.507885150395	0.161885150395
0	14584	397.948329070671	0.807329070671
0	14604	398.339597171065	0.402597171065
0	14631	399.173313976499	0.440313976499
0	14660	400.178954861331	0.649954861331
0	14701	401.198142095615	0.077142095615
0	14764	402.857103270279	0.145103270279
0	14769	402.870603959209	2.545603959209
0	14849	404.869034730435	0.565034730435
0	14855	404.929648160764	3.012648160764
0	14911	406.091124251185	0.195124251185
0	14917	406.145378414217	2.637378414217
0	14953	407.157154322529	2.057154322529
0	14983	407.96262238952	1.27062238952
0	14993	408.195017548466	0.707017548466
0	15048	409.652961305803	1.368961305803
0	15081	410.397353877684	1.318353877684
0	15132	411.58587038087	0.91487038087
0	15150	412.080584312615	2.205584312615
0	15174	412.561632737873	1.094632737873
0	15202	413.15974997265	0.89674997265
0	15237	414.21950792776	0.36450792776
0	15248	414.532871747239	1.473871747239
0	15308	416.009619254103	0.563619254103
0	15342	416.802380335508	0.560380335508
0	15378	417.433122071222	2.782122071222
0	15405	418.044094936475	0.210094936475
0	15418	418.596029933847	1.558029933847
0	15442	418.999328983566	0.369328983566
0	15500	420.825263801911	1.399263801911
0	15516	421.164351431047	0.942351431047
0	15529	421.48150426646	0.46350426646
0	15578	422.71572856249	0.90272856249
0	15638	424.04483585148	0.63983585148
0	15644	424.09816295169	1.48916295169
0	15666	424.55367483828	0.35267483828
0	15699	425.72952623897	0.73252623897
0	15735	426.648804657458	0.855804657458
0	15767	427.642928802762	1.053928802762
0	15780	427.94576516251	0.56076516251
0	15813	428.618481021439	0.438481021439
0	15840	429.323296873808	0.347296873808
0	15883	430.415567914893	0.643567914893
0	15905	431.187439213413	0.619439213413
0	15934	431.952601828574	0.588601828574
0	15954	432.458197631377	0.298197631377
0	15994	433.475664263588	0.519664263588
0	16018	433.993692672815	0.241692672815
0	16059	435.462538016547	0.119538016547
0	16122	437.362492915521	2.815492915521
0	16132	437.558041799454	0.623041799454
0	16183	438.845323257047	0.318323257047
0	16192	439.09945808605	1.36845808605
0	16216	439.575164326339	0.252164326339
0	16228	439.937278446557	3.798278446557
0	16321	442.214085537157	1.300085537157
0	16413	444.089968035172	3.970968035172
0	16439	444.513832366958	1.211832366958
0	16445	444.603590061525	0.505590061525
0	16484	445.363648542611	2.857648542611
0	16500	445.789011370223	0.895011370223
0	16507	445.924874384379	4.214874384379
0	16538	446.7991849932	1.1091849932
0	16546	447.216850829952	0.730850829952
0	16573	448.097875299972	0.816875299972
0	16580	448.351127274214	0.274127274214
0	16603	449.017967250533	0.144967250533
0	16630	450.153317267453	0.484317267453
0	16746	452.989192051247	2.524192051247
0	16758	453.221777367945	1.960777367945
0	16783	453.752823318105	0.899823318105
0	16803	454.381502394776	2.324502394776
0	16823	454.824247107693	1.176247107693
0	16867	455.857817921293	1.413817921293
0	16871	455.968626117628	0.728626117628
0	16909	456.849943798617	0.813943798617
0	16941	457.738146961214	0.906146961214
0	16953	458.039323253333	0.411323253333
0	17000	459.54096943381	1.11696943381
0	17008	459.73530542402	0.51530542402
0	17033	460.435422333722	0.420422333722
0	17094	462.376693813326	1.565693813326
0	17103	462.425017043378	0.818017043378
0	17110	462.642560376876	0.239560376876
0	17132	463.416323556618	0.217323556618
0	17168	464.483872656914	0.488872656914
0	17270	466.684987326965	1.097987326965
0	17273	466.696351646399	0.314351646399
0	17286	467.265430129686	2.474430129686
0	17330	468.535448204436	1.357448204436
0	17383	469.602393647797	0.832393647797
0	17393	469.889997929125	0.323997929125
0	17399	470.019295800013	2.045295800013
0	17411	470.49362160224	0.13162160224
0	17456	472.22880614819	0.27480614819
0	17470	472.701721792747	1.543721792747
0	17502	473.394079657221	0.645079657221
0	17520	473.889778610893	0.344778610893
0	17540	474.676781177169	0.335781177169
0	17591	476.601169325897	1.464169325897
0	17611	476.810520334526	0.877520334526
0	17626	477.493602854723	0.764602854723
0	17670	478.56257002472	1.03757002472
0	17684	479.121926725654	0.800926725654
0	17689	479.194939219705	0.078939219705
0	17710	480.130943559851	0.218943559851
0	17836	483.672478370141	2.168478370141
0	17874	484.364082902742	1.268082902742
0	17904	484.891244116067	2.591244116067
0	17912	485.008925377859	1.116925377859
0	17938	485.630484793381	0.942484793381
0	17945	485.730842026713	5.022842026713
0	17980	486.529324900438	1.046324900438
0	18006	487.345759220678	0.270759220678
0	18030	487.895354283088	0.024354283088
0	18046	488.534512320604	2.255512320604
0	18091	489.650679645498	0.983679645498
0	18156	491.299171799899	1.040171799899
0	18163	491.580688545835	0.525688545835
0	18177	491.93867600229	0.08867600229
0	18186	492.142030818218	2.679030818218
0	18266	494.391200936817	0.949200936817
0	18276	494.623206006455	1.977206006455
0	18308	495.263510685946	0.229510685946
0	18390	497.34375149413	1.51375149413
0	18393	497.346872728819	3.108872728819
0	18396	497.38481845798	0.75881845798
0	18460	498.72219033989	1.30019033989
0	18488	499.409116680061	1.192116680061
0	18534	500.429200185866	1.416200185866
0	18565	501.038401797495	0.433401797495
0	18611	502.44207717837	0.24507717837
0	18625	502.900205254069	1.499205254069
0	18665	504.134925039373	4.325925039373
0	18675	504.337162581033	0.548162581033
0	18727	505.552633224711	0.172633224711
0	18796	507.81750103753	0.84550103753
0	18827	508.564272496866	0.796272496866
0	18837	508.743948358869	0.179948358869
0	18881	509.968281946321	3.792281946321
0	18901	510.450501298482	0.294501298482
0	18908	510.601096129526	7.608096129526
0	18966	511.979926401604	7.395926401604
0	18979	512.242069948349	1.291069948349
0	18986	512.524227434676	3.164227434676
0	19016	513.05432964937	1.30732964937
0	19038	513.503059480664	0.164059480664
0	19119	515.529789728907	2.986789728907
0	19124	515.550680104109	1.415680104109
0	19152	516.010346891169	1.079346891169
0	19156	516.04833260407	0.32133260407
0	19185	516.774802524914	0.251802524914
0	19218	517.702805251607	0.384805251607
0	19311	519.899263942062	0.989263942063
0	19326	520.366046796439	0.660046796439
0	19332	520.478785885034	2.364785885034
0	19366	521.170903015332	0.668903015333
0	19383	521.666439485254	0.368439485254
0	19425	522.57825305435	0.48425305435
0	19464	523.596378149602	0.706378149602
0	19495	524.224103462059	0.53910346206
0	19532	525.079277109369	0.598277109369
0	19566	525.831890747776	0.554890747776
0	19601	526.611216972536	0.538216972536
0	19648	528.029063600809	1.160063600809
0	19674	528.812290945394	1.147290945395
0	19700	529.566315809927	0.309315809928
0	19734	530.867979448637	2.406979448637
0	19783	532.010441459458	0.366441459458
0	19786	532.011609905079	1.959609905079
0	19821	533.322668925748	0.882668925748
0	19832	533.52471802964	0.28871802964
0	19846	533.950590149354	3.102590149355
0	19868	534.386807103524	0.354807103524
0	19914	535.946638083636	0.322638083636
0	19927	536.329428265947	1.501428265947
0	19945	536.843437603763	0.424437603763
0	19989	538.23707967104	1.02207967104
0	19992	538.47342428802	0.462424288021
0	20024	539.735592702473	0.928592702473
0	20039	540.330047894743	0.727047894744
0	20057	540.656205518559	0.257205518559
0	20124	542.3911331845	0.4001331845
0	20144	542.894416794864	1.699416794864
0	20160	543.446326519673	0.660326519674
0	20214	544.855966700853	0.477966700853
0	20218	544.879066348283	1.297066348283
0	20283	546.452675647754	1.278675647754
0	20340	547.768186018914	1.798186018914
0	20356	548.058439928335	0.496439928335
0	20359	548.112803757846	1.346803757847
0	20373	548.618543739604	0.260543739605
0	20418	550.049368131177	0.100368131178
0	20422	550.120621141625	0.967621141625
0	20462	551.24872308137	0.50372308137
0	20481	551.767016075119	0.226016075119
0	20516	552.643256229429	0.306256229429
0	20562	554.103041763683	0.970041763683
0	20574	554.450896762668	0.521896762668
0	20591	555.052791070013	0.327791070013
0	20641	556.941239182073	0.625239182073
0	20665	557.57834133261	2.05834133261
0	20724	558.946139599952	1.038139599952
0	20767	559.969628782342	1.265628782343
0	20788	560.387713985503	0.887713985503
0	20801	560.753235891218	0.457235891218
0	20856	562.4517849336	5.339784933601
0	20859	562.471993526746	1.379993526746
0	20898	563.29075572708	0.60775572708
0	20903	563.406418214601	1.519418214602
0	20918	563.752238211002	0.273238211002
0	20942	564.963113747381	0.688113747381
0	20964	565.337782864815	0.266782864815
0	20995	566.348754825911	0.481754825911
0	21040	567.667400497305	1.004400497305
0	21043	567.696348148816	0.237348148816
0	21104	569.375892361264	0.325892361264
0	21141	570.083643535546	0.237643535546
0	21178	571.327640973049	0.685640973049
0	21205	571.971310019889	3.717310019889
0	21240	572.764720566205	1.326720566205
0	21250	572.839008973173	0.605008973173
0	21289	573.809453173532	0.779453173532
0	21311	574.007088923879	0.181088923879
0	21357	575.64485188706	0.22785188706
0	21396	576.655728847112	0.442728847112
0	21437	577.219252851517	2.598252851517
0	21447	577.549314116392	0.540314116392
0	21467	578.336557105134	0.531557105134
0	21508	579.616688504016	0.219688504016
0	21522	579.951114117854	1.350114117854
0	21554	580.533661693678	0.340661693678
0	21584	581.539364503878	0.551364503878
0	21624	582.646663025534	0.066663025534
0	21634	582.894694251398	1.110694251398
0	21658	583.927714524898	0.551714524898
0	21674	584.427018087506	0.255018087506
0	21720	585.872973224046	0.904973224046
0	21730	586.214422669956	0.450422669956
0	21755	587.018981825289	0.458981825289
0	21783	587.813533403187	0.458533403187
0	21822	588.910416052661	0.759416052661
0	21837	589.034742681198	0.087742681198
0	21910	591.23831528557	1.49531528557
0	21938	591.683864730506	1.144864730506
0	21972	592.347861778153	1.012861778153
0	21991	592.749220371437	0.618220371437
0	22042	594.347860127062	0.625860127062
0	22083	595.505044070029	0.191044070029
0	22113	596.137759564635	3.210759564635