version 2
run General-0-20150908-23:50:58-9756
attr configname General
attr datetime 20150908-23:50:58
attr experiment General
attr inifile omnetpp.ini
attr iterationvars ""
attr iterationvars2 $repetition=0
attr measurement ""
attr network CloudDataCenterTS
attr processid 9756
attr repetition 0
attr replication #0
attr resultdir results
attr runnumber 0
attr seedset 0

vector 0  CloudDataCenterTS.sink  responseTime_0  ETV
vector 1  CloudDataCenterTS.sink  delayTime_0  ETV
vector 2  CloudDataCenterTS.sink  queuingTime_0  ETV
vector 3  CloudDataCenterTS.sink  serviceTime_0  ETV
vector 4  CloudDataCenterTS.sink  responseTime_1  ETV
vector 5  CloudDataCenterTS.sink  delayTime_1  ETV
vector 6  CloudDataCenterTS.sink  queuingTime_1  ETV
vector 7  CloudDataCenterTS.sink  serviceTime_1  ETV
0	38	0.817298619172	0.817298619172
0	70	2.454754719402	0.544654719402
0	96	3.331403824413	0.466253824413
0	150	5.462028198631	0.686778198631
0	210	7.029707826194	1.299407826194
0	217	7.115426914213	3.295226914213
0	240	7.715371379738	0.074971379738
0	286	8.879076354042	2.193726354042
0	387	11.344141613841	1.793651613841
0	409	11.690914500989	1.185414500989
0	425	11.924979319976	3.329539319976
0	433	12.150714724385	0.690114724385
0	467	13.255593424042	0.839993424042
0	488	14.025131303606	0.654431303606
0	507	14.705053300183	0.379353300183
0	528	15.782593741275	0.501793741275
0	540	16.347112949266	0.111312949266
0	572	17.997353046667	0.806453046667
0	652	20.074564404433	0.973564404433
0	676	20.858688139596	2.712788139596
0	697	21.166675645521	0.155575645521
0	743	22.653653269232	2.597653269232
0	763	23.06951914717	0.14831914717
0	771	23.291396978896	1.325296978896
0	808	24.421427761942	0.545227761942
0	905	27.024076022846	1.237776022846
0	912	27.144567060209	0.403167060209
0	963	28.379859593794	0.683459593794
0	985	28.991853348548	0.340353348548
0	996	29.335337744494	4.504037744494
0	1026	30.031772554653	0.425272554653
0	1136	33.453286873419	1.936686873419
0	1186	34.924200035646	2.452500035646
0	1196	35.112976053444	1.686276053445
0	1199	35.137636313279	4.576036313279
0	1212	35.402022063342	0.065222063342
0	1257	36.996417114047	0.704517114047
0	1312	38.430789999545	1.183889999545
0	1318	38.454735124296	0.252735124296
0	1324	38.529967752383	4.148167752383
0	1374	40.714572191197	0.602472191197
0	1383	41.013622868796	1.856622868796
0	1412	41.785950554411	0.718850554411
0	1439	42.343181242634	0.320981242634
0	1469	43.844789940044	0.867589940044
0	1495	44.258793918989	0.326493918989
0	1512	45.080124074276	0.192824074276
0	1524	45.95942864659	0.11702864659
0	1545	47.182053116058	0.384653116058
0	1572	48.053379487837	0.300879487837
0	1631	49.921241608588	1.213741608588
0	1647	50.481738569629	0.819138569629
0	1673	51.12476416	0.50716416
0	1713	52.234145209946	0.661445209946
0	1766	53.602019055478	1.074319055478
0	1779	53.9361190449	0.4533190449
0	1813	55.470665706366	1.032865706366
0	1848	56.405986293005	1.013086293005
0	1865	56.983599941202	0.635699941202
0	1905	58.225682965065	0.922682965065
0	1931	59.005860282459	0.747860282459
0	1968	59.755462134972	0.542362134972
0	1987	60.693306469924	0.525206469924
0	2032	62.235813306549	0.157613306549
0	2052	62.889413282532	1.766213282532
0	2080	64.063817336441	1.030517336441
0	2109	65.106181764285	1.117881764285
0	2118	65.153697257466	0.210297257466
0	2150	66.578860706862	0.680460706863
0	2174	67.171760416532	0.318260416532
0	2239	68.845461858038	1.036961858039
0	2337	70.865218123029	0.191518123029
0	2340	70.905248676763	2.141648676763
0	2370	71.749724177356	2.031124177357
0	2415	73.022881403527	0.439081403527
0	2425	73.188130112274	1.559430112274
0	2489	74.995751473507	0.501851473507
0	2535	76.443647143708	0.039647143708
0	2568	77.592851867585	0.233851867585
0	2600	78.376565231786	4.837765231786
0	2607	78.41715174306	2.96825174306
0	2648	79.356212952056	0.087112952056
0	2654	79.381321641963	1.067221641963
0	2717	81.775384606523	1.551184606523
0	2753	82.974707376908	0.840507376908
0	2768	83.186245531231	0.096945531231
0	2780	83.462039349726	2.282839349726
0	2803	84.20574341529	0.16144341529
0	2872	86.657201581347	0.702801581347
0	2929	88.045549908836	3.046149908836
0	2938	88.187161654063	0.322661654063
0	2954	88.444101331318	1.534601331318
0	3021	90.607391057272	0.832791057272
0	3049	91.536838569809	2.717238569809
0	3063	91.79806926206	0.11336926206
0	3073	92.081137775243	1.351437775243
0	3115	93.640728111954	1.000928111954
0	3140	94.366450492586	0.771650492586
0	3213	96.185994142761	1.636094142761
0	3229	96.641914806009	1.137014806009
0	3259	97.524245907444	1.064245907444
0	3280	98.159035832598	0.744035832598
0	3304	98.630215171869	0.260115171869
0	3363	100.755660902838	0.475660902838
0	3373	101.071207932796	1.746107932796
0	3445	102.678049446339	1.443049446339
0	3450	102.849913031324	0.659913031324
0	3495	104.172557448879	1.027557448879
0	3517	104.922850491541	0.822850491541
0	3534	105.475786768895	0.420786768895
0	3555	106.268353518732	0.258353518732
0	3593	107.674517209985	0.708517209985
0	3632	108.425553627497	0.504553627497
0	3650	109.090171515176	0.214171515176
0	3701	110.958878456209	0.172878456209
0	3721	111.440395564498	1.609395564498
0	3740	112.016709087191	0.275709087191
0	3782	113.385627025034	0.689627025034
0	3802	113.843134675393	0.192134675393
0	3854	115.723175334689	0.162175334689
0	3857	115.768435792748	1.162435792748
0	3884	116.618253951957	0.102253951957
0	3934	118.201534918004	0.730534918004
0	3950	118.48681577984	0.06081577984
0	3987	119.61199106704	0.23099106704
0	4042	121.163911778229	0.827911778229
0	4116	122.89893382444	1.60793382444
0	4138	123.305408951832	1.059408951832
0	4170	124.149347857599	0.948347857599
0	4255	125.830684720428	0.719684720428
0	4264	126.112909277432	1.956909277432
0	4298	127.196077642758	1.129077642758
0	4319	127.804102676019	0.782102676019
0	4372	129.349691587999	0.417691588
0	4380	129.467477838867	1.490477838867
0	4446	131.613266693373	1.726266693373
0	4488	132.400201505598	0.603201505598
0	4512	133.180222134018	0.428222134018
0	4547	134.002735283937	0.295735283937
0	4563	134.439319657774	3.597319657774
0	4718	138.48148755165	0.954487551651
0	4746	138.781960358773	0.299960358773
0	4763	139.10198275859	4.43998275859
0	4768	139.171355936844	2.599355936844
0	4771	139.188779247631	3.571779247632
0	4783	139.610240683919	0.173240683919
0	4809	140.550457688792	0.158457688792
0	4839	141.852032321572	0.505032321572
0	4858	142.488588380016	0.186588380016
0	4886	143.536784989452	0.279784989452
0	4918	145.061020421276	0.849020421276
0	4940	145.559336274472	0.391336274472
0	4975	146.353739311316	0.230739311316
0	5008	147.67434874312	0.59634874312
0	5035	148.893462236843	0.860462236843
0	5057	149.302514469451	0.314514469451
0	5078	150.258258980539	0.315258980539
0	5097	151.064223656216	0.166223656216
0	5160	153.066814096309	1.213814096309
0	5170	153.235486967478	0.427486967478
0	5221	155.026316394219	0.308316394219
0	5247	155.803112052429	2.040112052429
0	5251	155.870352224504	0.197352224504
0	5285	156.989884971235	0.361884971235
0	5313	158.172725936369	0.589725936369
0	5333	158.820785991583	0.282785991583
0	5390	160.733207293703	1.240207293703
0	5398	161.338613053396	0.890613053396
0	5424	162.255426607155	0.852426607155
0	5449	163.175087708464	0.817087708464
0	5464	163.565241956742	0.252241956742
0	5483	164.586839620896	0.318839620896
0	5514	165.843679565298	0.619679565298
0	5548	166.703488358987	0.524488358987
0	5571	167.913448584731	0.779448584731
0	5595	168.409408970058	0.320408970058
0	5644	170.096475806351	1.052475806351
0	5681	171.225522713746	1.226522713746
0	5723	172.819198813327	0.910198813327
0	5788	174.644125869861	1.780125869861
0	5865	176.153699351102	5.199699351102
0	5891	176.796976003321	2.977976003321
0	5920	177.604818590998	1.875818590998
0	5936	177.793402123041	3.019402123041
0	5958	178.396341066947	1.712341066947
0	6024	179.933257929401	2.294257929401
0	6027	179.985473671461	0.436473671461
0	6045	180.692498547521	2.098498547521
0	6059	181.045790118488	0.541790118488
0	6108	182.962805650872	1.503805650872
0	6162	184.471890009373	0.146890009373
0	6195	185.281324694023	2.867324694023
0	6215	185.909047025122	2.540047025122
0	6218	185.963902165694	0.683902165694
0	6239	187.076277909268	0.841277909268
0	6253	187.2754289002	0.0854289002
0	6285	188.392604429078	0.247604429078
0	6318	189.877330817888	0.777330817888
0	6343	190.872766289757	0.817766289757
0	6386	192.36375113452	0.39875113452
0	6509	196.048507585014	0.263507585014
0	6528	196.300612330767	3.380612330767
0	6574	197.674474538488	6.664474538488
0	6589	197.833264500447	3.958264500447
0	6606	198.217339666823	0.522339666823
0	6632	198.800274529005	3.970274529005
0	6643	199.109897038511	2.369897038511
0	6673	199.876660946353	1.226660946353
0	6686	200.221694536625	0.616694536625
0	6713	200.991856798451	0.431856798451
0	6743	202.268851961399	0.753851961399
0	6767	202.755986644756	0.285986644756
0	6822	204.394495805124	0.968495805124
0	6884	205.632765566508	0.296765566508
0	6910	206.422087151666	2.041087151666
0	6921	206.620696812218	0.329696812218
0	6938	207.425299003412	0.179299003412
0	6960	208.397395009426	0.196395009426
0	7003	209.457331451714	0.301331451714
0	7063	211.28627181481	1.17527181481
0	7092	212.37925226929	1.31325226929
0	7098	212.519179613367	0.498179613367
0	7113	213.262969728026	0.286969728026
0	7150	214.6799060826	0.7489060826
0	7188	215.803868934043	0.917868934043
0	7209	216.186622278189	0.345622278189
0	7238	216.939053374333	0.143053374333
0	7281	218.239274354848	0.488274354848
0	7314	219.143423634466	0.437423634466
0	7341	220.107396673623	0.446396673623
0	7410	222.026335185329	1.410335185329
0	7441	222.900109805364	0.373109805364
0	7459	223.604052443343	2.033052443343
0	7465	223.76292555177	0.28092555177
0	7516	225.929596372618	0.537596372618
0	7548	226.698515239093	0.351515239093
0	7608	228.276298186795	3.839298186795
0	7617	228.427338709158	1.125338709158
0	7690	230.273885678926	2.016885678926
0	7696	230.343947758444	0.176947758444
0	7732	231.59532343667	2.38332343667
0	7737	231.606647317453	0.484647317453
0	7774	232.700603509229	0.623603509229
0	7805	233.760139262268	0.728139262268
0	7874	235.836649828467	0.894649828467
0	7889	235.985302562342	1.998302562342
0	7906	236.718650178521	0.821650178521
0	7918	237.000465069145	0.148465069145
0	7941	237.859961979847	0.052961979847
0	7978	239.622180647586	0.860180647586
0	7990	239.844082196574	0.127082196574
0	8010	240.733638847602	0.061638847602
0	8045	242.532687763196	0.905687763196
0	8076	243.608327580185	1.025327580185
0	8087	243.994548861709	0.456548861709
0	8141	245.627496637769	1.134496637769
0	8152	246.039011644632	0.591011644632
0	8182	247.225670308761	0.822670308761
0	8233	248.445844076404	0.132844076404
0	8316	250.436088137127	1.168088137127
0	8365	251.320076496283	1.097076496283
0	8377	251.707320678295	4.349320678295
0	8394	252.145245970063	0.967245970063
0	8434	253.425456337457	0.337456337457
0	8448	253.942787150338	1.809787150338
0	8497	255.183728672913	1.140728672913
0	8556	256.614368280936	0.661368280936
0	8605	257.987438568203	2.989438568203
0	8637	258.609983433983	1.701983433983
0	8645	258.719412888852	0.856412888852
0	8683	259.926318275264	0.153318275264
0	8728	261.948870493218	1.220870493218
0	8746	262.567157294355	0.883157294355
0	8764	263.05123087608	4.233230876081
0	8799	264.015247264303	1.376247264303
0	8807	264.231656510531	0.637656510531
0	8854	265.829378751328	1.280378751329
0	8873	266.468716026507	0.964716026507
0	8916	268.017583915323	0.603583915323
0	8940	268.938092999943	2.479092999943
0	8978	270.149444007574	1.780444007574
0	8990	270.291240077986	0.967240077986
0	9008	270.715031778398	0.436031778398
0	9039	272.009177507773	0.775177507774
0	9054	272.651228505101	0.462228505101
0	9074	273.337314229552	0.193314229552
0	9140	275.333242747326	1.234242747326
0	9184	276.391843745806	0.382843745806
0	9226	277.497151735867	2.443151735868
0	9232	277.67676874781	0.71276874781
0	9255	278.600675596419	0.68167559642
0	9268	278.998760181381	0.124760181381
0	9293	280.254944726732	0.425944726732
0	9330	281.649941247309	0.864941247309
0	9382	283.169759789236	0.474759789236
0	9465	285.434993231368	1.784993231368
0	9495	285.958593613167	1.353593613167
0	9531	286.777777552515	0.262777552515
0	9570	287.718477239131	0.248477239131
0	9605	289.082761957015	0.657761957015
0	9654	290.800627487734	0.465627487734
0	9678	291.695333400715	6.135333400715
0	9691	292.043292257337	10.303292257337
0	9719	292.683711892356	3.303711892356
0	9737	293.203530049362	1.913530049362
0	9763	293.800749348466	1.555749348466
0	9787	294.460630150241	0.305630150241
0	9797	294.99998270117	1.79998270117
0	9833	296.081633783517	0.016633783517
0	9839	296.163560376304	1.053560376304
0	9880	297.72621880535	0.70621880535
0	9895	298.319437171743	0.344437171743
0	9957	300.407151422389	0.521151422389
0	9970	300.810520595268	1.880520595268
0	10008	301.671516990159	0.830516990159
0	10026	301.892730287596	0.096730287596
0	10063	303.331580533368	0.580580533368
0	10089	304.127631220729	0.421631220729
0	10107	305.124246696518	0.463246696518
0	10136	306.072246299585	0.456246299585
0	10174	307.131524126705	0.560524126705
0	10187	307.75691878378	0.23091878378
0	10235	309.458303736215	0.977303736215
0	10254	310.231054982239	0.795054982239
0	10273	310.858385174392	0.467385174392
0	10297	311.613126154618	0.267126154618
0	10344	313.379163329606	1.078163329606
0	10360	313.982959024636	0.726959024636
0	10395	315.236899838146	1.025899838146
0	10402	315.455091866889	0.289091866889
0	10430	316.421509807605	0.300509807605
0	10449	317.564611131025	0.488611131025
0	10502	319.158067750501	0.171067750501
0	10512	319.492573321356	1.461573321356
0	10570	321.145304257675	1.203304257675
0	10579	321.307449397915	0.410449397915
0	10605	321.948362193853	0.096362193853
0	10628	322.906882831115	0.099882831115
0	10639	323.82353668811	0.06153668811
0	10688	325.95948076957	0.28748076957
0	10702	326.417370815072	1.700370815072
0	10725	327.131296364066	0.504296364066
0	10753	327.961739137657	0.379739137657
0	10787	329.145319153319	0.608319153319
0	10829	330.726182926106	1.234182926106
0	10836	330.84317428173	0.39617428173
0	10863	331.756932014144	0.354932014144
0	10903	332.86595267336	0.50895267336
0	10936	333.733481553983	0.421481553983
0	10984	335.02992043463	0.76292043463
0	11018	336.089963399303	0.867963399303
0	11049	336.88623895408	0.70923895408
0	11070	337.343512698172	0.211512698172
0	11091	338.1815494937	0.0945494937
0	11127	339.434473899714	0.391473899714
0	11163	340.876648128361	0.878648128361
0	11176	341.234516521461	0.281516521461
0	11227	342.961013181378	1.053013181378
0	11245	343.286892202063	0.423892202063
0	11329	346.210323151332	2.392323151332
0	11350	346.761437709027	0.078437709027
0	11383	347.672181528366	1.944181528366
0	11388	347.777493152312	3.004493152312
0	11402	348.384274732534	0.746274732534
0	11428	349.117667380455	0.524667380455
0	11469	350.516704351987	0.968704351987
0	11523	352.098131959855	0.640131959855
0	11582	353.519380517239	3.016380517239
0	11592	353.602597294936	0.234597294936
0	11633	354.76528974929	2.35228974929
0	11636	354.813744756261	0.490744756261
0	11672	355.873715767859	0.595715767859
0	11724	357.363466433015	0.175466433015
0	11738	357.845606036202	1.612606036202
0	11817	360.115758920154	1.971758920154
0	11823	360.165644265569	1.066644265569
0	11835	360.250310436791	0.196310436791
0	11875	361.507801758904	0.498801758904
0	11895	362.281222755184	0.317222755184
0	11914	363.391507876483	0.472507876483
0	11952	364.679037648636	0.805037648636
0	12004	366.080617923753	0.296617923753
0	12039	367.032269191757	2.203269191757
0	12043	367.097279627747	0.358279627747
0	12072	368.238828715261	0.544828715261
0	12111	369.583803551906	0.934803551906
0	12134	370.057168283234	0.453168283234
0	12164	371.170903995658	0.611903995658
0	12186	372.20981207267	0.69581207267
0	12204	372.776159957079	0.307159957079
0	12224	373.786495025236	0.362495025236
0	12244	375.024014911884	0.645014911884
0	12275	375.948400652187	0.614400652187
0	12296	376.488991569216	0.199991569216
0	12323	377.759987674531	0.514987674531
0	12337	378.41592732308	0.21592732308
0	12377	380.19933841042	1.04433841042
0	12393	380.456789805016	0.346789805016
0	12434	382.128623388167	1.063623388167
0	12469	383.086060066716	1.066060066716
0	12481	383.502255717364	0.527255717364
0	12504	384.850352385606	0.920352385606
0	12515	384.972251522905	0.087251522905
0	12578	387.640529028167	0.845529028167
0	12591	387.946325333124	2.106325333124
0	12632	389.187488274065	0.482488274065
0	12638	389.218693757142	1.468693757142
0	12716	391.769382137131	0.199382137131
0	12719	391.799569932936	1.184569932936
0	12730	391.956595250124	2.296595250124
0	12806	394.184902848913	0.704902848913
0	12813	394.301173586035	1.776173586035
0	12888	396.545660645165	1.155660645165
0	12899	397.068240162346	0.722240162346
0	12902	397.278402529685	2.843402529685
0	12915	397.505936145664	0.204936145664
0	12980	399.930890133955	1.674890133955
0	13010	400.580307397234	1.369307397234
0	13038	401.176088683708	1.010088683708
0	13089	402.48329457093	1.36229457093
0	13094	402.776502080706	0.700502080706
0	13177	405.177271795492	1.191271795492
0	13219	406.467997079502	1.526997079502
0	13240	406.952151445737	1.056151445737
0	13247	407.112011764754	4.081011764754
0	13293	408.604567073106	1.753567073106
0	13316	409.144485481164	0.383485481164
0	13330	409.432504745028	1.626504745028
0	13353	410.552813689076	0.836813689076
0	13416	412.33497480959	1.66397480959
0	13423	412.453840895366	0.827840895366
0	13458	413.131724420165	0.550724420165
0	13480	413.732174377556	0.196174377556
0	13532	415.589093673946	0.143093673946
0	13572	416.938211712044	2.447211712044
0	13596	417.638690382467	0.281690382467
0	13604	417.789535518733	1.387535518733
0	13669	419.741379185865	0.474379185865
0	13732	421.372774728284	1.150774728284
0	13755	421.966808053612	0.789808053612
0	13767	422.155376547798	3.843376547798
0	13783	422.781083348818	0.649083348818
0	13845	424.933749934726	0.891749934726
0	13874	425.444444028996	0.447444028996
0	13877	425.444545284253	2.357545284253
0	13918	427.005287104862	0.098287104862
0	13950	427.907520126698	1.955520126698
0	13965	428.54987612723	0.68787612723
0	13986	429.139491649598	0.322491649598
0	14013	430.164630648143	0.392630648143
0	14029	430.91785310265	0.19085310265
0	14061	432.146117067098	0.464117067098
0	14087	433.208425545151	0.571425545151
0	14117	434.202365715445	0.610365715445
0	14152	435.178521169711	0.631521169711
0	14209	436.704681149032	1.201681149032
0	14261	438.488008866435	1.075008866435
0	14270	438.753876940216	0.385876940216
0	14312	439.886515248861	3.428515248861
0	14321	440.089088980855	0.766088980855
0	14340	440.532074766052	0.254074766052
0	14380	441.763334228732	0.530334228732
0	14409	442.639349345522	0.451349345522
0	14454	444.422828716502	1.279828716502
0	14457	444.493661943382	0.395661943382
0	14489	445.658146330897	0.605146330897
0	14516	446.72863672426	0.72063672426
0	14530	447.215331043785	0.252331043785
0	14557	448.228537281992	0.310537281992
0	14611	449.850443984	0.022443984
0	14623	450.251995454104	1.378995454104
0	14674	451.823584490507	1.040584490507
0	14704	452.758359203889	1.020359203889
0	14724	453.511114197049	0.818114197049
0	14749	454.128896709386	0.480896709386
0	14791	455.034782604664	0.430782604664
0	14812	455.925423554211	0.366423554211
0	14823	456.612586041759	0.098586041759
0	14853	457.885963126777	0.416963126777
0	14911	459.433392389928	1.009392389928
0	14958	460.6875715093	1.3085715093
0	14970	461.090239217909	0.756239217909
0	14988	461.354424239456	0.065424239456
0	15047	463.361320867151	0.162320867151
0	15111	465.206463103883	2.962463103883
0	15156	466.376258731824	0.312258731824
0	15159	466.390353640457	1.281353640457
0	15164	466.592162694435	2.438162694435
0	15225	468.452714302639	1.433714302639
0	15249	469.04581595502	1.07181595502
0	15257	469.311525023218	0.382525023218
0	15306	470.799225133279	0.915225133279
0	15348	472.168155514058	0.374155514058
0	15451	474.975703239218	1.270703239218
0	15461	475.570901403991	0.910901403991
0	15476	475.798539758397	0.183539758397
0	15554	477.876454403001	0.351454403001
0	15568	478.317331906155	5.568331906155
0	15577	478.426961834166	7.587961834166
0	15580	478.466117153619	1.896117153619
0	15601	478.84994425205	0.36994425205
0	15632	479.957830738328	0.522830738328
0	15653	480.879649170264	0.489649170264
0	15678	481.945785517527	0.600785517527
0	15700	482.818964236081	0.518964236081
0	15741	484.38034781287	0.17034781287
0	15775	485.358011702283	0.193011702283
0	15784	485.507639665032	2.252639665032
0	15807	486.125401367376	0.005401367376
0	15871	488.608504855421	1.533504855421
0	15932	489.911711151679	1.881711151679
0	15960	490.555049391254	1.570049391254
0	15992	491.273550610739	0.378550610739
0	16019	491.917750008952	1.977750008952
0	16027	492.006149269679	0.156149269679
0	16077	493.598272003772	0.793272003772
0	16107	494.31583406187	0.55483406187
0	16123	495.179703161502	0.463703161502
0	16171	496.781765999466	0.155765999466
0	16187	497.279318695811	1.608318695811
0	16212	498.330421010741	0.749421010741
0	16225	498.779128220423	0.243128220423
0	16296	501.231349567666	1.740349567666
0	16323	501.895655677226	1.449655677226
0	16351	502.419704798944	1.018704798944
0	16359	502.491377657294	0.135377657294
0	16479	505.827859578363	1.561859578363
0	16518	506.709763119314	3.398763119314
0	16528	506.82543793095	0.64943793095
0	16587	508.116933405666	0.985933405666
0	16656	509.462416544303	0.421416544303
0	16677	509.923443218771	1.837443218771
0	16693	510.04599805077	0.04999805077
0	16704	510.384480797384	5.163480797384
0	16786	512.954976402494	2.003976402494
0	16866	514.806773047305	0.989773047305
0	16896	515.525795150012	3.619795150012
0	16900	515.555274305143	0.783274305143
0	16920	515.9241049918	0.1971049918
0	16925	515.990865469924	3.128865469925
0	16981	517.947079101814	1.265079101814
0	16985	518.004824422499	0.3678244225
0	17015	519.151068030439	0.559068030439
0	17075	520.876928201673	1.329928201673
0	17104	521.825883393578	1.323883393579
0	17111	521.970598857769	0.513598857769
0	17142	522.746879252233	0.334879252233
0	17159	523.651003255397	0.284003255398
0	17180	524.789057705069	0.467057705069
0	17233	526.47439444204	0.24239444204
0	17236	526.491939116794	1.214939116794
0	17284	528.51363358281	1.32663358281
0	17414	531.223574363659	3.081574363659
0	17426	531.480923567544	1.428923567544
0	17430	531.555880656308	0.548880656309
0	17451	532.059126888474	0.096126888475
0	17463	532.84429551374	3.74729551374
0	17507	534.336363174397	1.418363174397
0	17538	535.161541634608	0.333541634608
0	17541	535.171845284917	1.298845284917
0	17572	536.685170207333	0.902170207333
0	17615	537.742444564246	1.004444564246
0	17694	539.942263435129	0.33926343513
0	17704	540.220618319864	2.527618319864
0	17746	541.417912713652	2.769912713652
0	17767	541.736310018886	0.223310018886
0	17783	542.428416038539	1.870416038539
0	17825	543.57664953937	1.108649539371
0	17880	545.069226727172	1.646226727172
0	17915	545.779039276077	1.401039276077
0	17932	546.275488826349	0.942488826349
0	17967	547.231833302929	0.943833302929
0	17985	547.515266697246	0.272266697246
0	18019	548.746628778941	0.548628778941
0	18042	549.581506184641	0.428506184641
0	18106	551.481223686621	0.417223686622
0	18122	551.851529214479	1.74352921448
0	18138	552.263536815215	0.244536815215
0	18168	553.238912897518	0.264912897518
0	18179	553.947337479848	0.018337479848
0	18224	556.003951065748	0.164951065748
0	18232	556.335684881762	1.451684881762
0	18297	558.384282449346	1.590282449346
0	18337	559.575278956932	0.871278956933
0	18386	561.11425336467	0.50025336467
0	18418	562.13496967894	0.565969678941
0	18430	562.511293967732	4.762293967732
0	18491	563.711056032156	0.232056032156
0	18496	563.824948326689	1.300948326689
0	18528	564.738909088297	5.079909088297
0	18534	564.927869300487	0.493869300487
0	18556	566.04444047496	0.65544047496
0	18581	567.16167639929	0.81767639929
0	18609	568.224553085021	0.925553085021
0	18630	568.548886846729	0.294886846729
0	18685	570.307992632945	1.098992632945
0	18695	570.400593342006	0.236593342006
0	18758	572.410974817675	1.290974817675
0	18804	573.504417910963	1.429417910963
0	18865	574.744887765157	0.759887765157
0	18925	576.129190392909	0.234190392909
0	18942	576.680681292783	3.650681292783
0	19013	578.459822358152	1.609822358152
0	19026	578.675835312611	3.735835312611
0	19037	578.767889329861	0.962889329861
0	19061	579.334560724752	0.574560724752
0	19105	580.585447555696	0.870447555696
0	19224	582.897959059769	1.272959059769
0	19227	582.90430473217	0.32430473217
0	19230	582.969578812583	2.299578812583
0	19263	584.079661150446	0.544661150446
0	19301	585.159627562273	0.669627562273
0	19344	586.783965393713	0.383965393713
0	19365	587.540083451193	2.095083451193
0	19374	587.681334610275	0.326334610275
0	19396	588.670512811567	0.360512811567
0	19454	590.787505316801	0.566505316801
0	19493	592.028595812829	2.763595812829
0	19527	592.815213522493	1.639213522493
0	19560	593.422906116747	0.336906116747
0	19569	593.553725376318	1.422725376318
0	19684	596.336918893649	1.340918893649
0	19695	596.560277335271	0.609277335271
0	19727	597.204071898308	0.298071898308
0	19736	597.389133675176	3.348133675176
0	19805	599.118304399048	1.257304399048
0	19835	599.813004359787	0.997004359787
0	19843	599.987289205584	0.216289205584
0	19946	602.943725126831	1.262725126831
0	19949	602.958557645444	2.232557645444
0	19959	603.25187449517	0.61587449517
0	19975	603.644354052718	0.053354052718
0	20043	605.950237058463	0.449237058463
0	20047	606.03912253874	1.49312253874
0	20082	607.344035039174	0.888035039174
0	20101	607.879506257425	0.468506257425
0	20125	608.516330318057	0.150330318057
0	20170	609.922913183553	0.600913183553
0	20203	610.614471655078	0.337471655078
0	20229	611.480596640183	0.248596640183
0	20272	612.943493223383	0.756493223383
0	20319	613.86842292424	0.72642292424
0	20347	614.878164309835	0.781164309835
0	20377	615.6151322844	0.5631322844
0	20426	617.336605959453	1.329605959453
0	20456	618.346738290058	1.384738290058
0	20478	618.94275677894	0.07075677894
0	20491	619.376071387423	1.459071387423
0	20507	619.921709499311	0.094709499311
0	20552	621.726690745607	0.944690745607
0	20602	622.977327621037	1.240327621037
0	20648	624.043192462642	1.351192462642
0	20679	624.881168763566	1.234168763566
0	20689	625.13846521826	0.53646521826
0	20745	626.569090508187	1.012090508187
0	20775	627.324255687003	0.812255687003
0	20793	627.735748404185	0.268748404185
0	20862	629.608687572406	0.230687572406
0	20895	630.701902890857	0.368902890857
0	20926	631.368958384812	0.080958384812
0	20931	631.422110730811	2.999110730811
0	20973	633.039376806622	0.796376806622
0	20998	633.833057893506	0.635057893506
0	21039	635.347023314837	1.194023314837
0	21042	635.422012843916	0.314012843916
0	21061	636.715507570165	0.652507570165
0	21177	639.465408919679	1.492408919679
0	21202	640.229522792906	0.346522792906
0	21211	640.439360671297	3.421360671297
0	21233	641.093092000336	0.255092000336
0	21319	643.41772041678	4.48972041678
0	21338	643.730207172983	0.982207172983
0	21356	643.980036124355	2.187036124355
0	21416	645.801961658671	2.098961658671
0	21441	646.545758857105	0.932758857105
0	21492	647.87460447029	1.30660447029
0	21499	648.032288095255	3.374288095255
0	21558	649.756646575586	0.322646575586
0	21608	651.211055204944	2.732055204944
0	21665	652.531313992781	1.187313992781
0	21730	653.731745548901	0.477745548901
0	21762	654.334981309794	2.035981309794
0	21775	654.540995453001	4.151995453001
0	21786	654.767718891015	0.558718891015
0	21859	656.515486205818	1.351486205818
0	21867	656.594584996422	9.071584996422
0	21921	657.498606023957	0.424606023957
0	21950	658.53227883564	2.41327883564
0	21957	658.673425791676	0.644425791676
0	21982	659.304557703207	0.320557703207
0	22033	661.106040948246	1.167040948246
0	22050	661.794679025418	0.900679025418
0	22062	661.989656139869	0.140656139869
0	22092	663.245899152961	0.441899152961
0	22126	664.576709694164	0.817709694164
0	22178	666.048869824829	0.379869824829
0	22224	667.404236212969	2.690236212969
0	22296	668.990147722691	1.410147722691
0	22304	669.147433670846	2.523433670846
0	22335	669.819981107769	1.284981107769
0	22369	670.683616809265	1.193616809265
0	22383	671.001464052477	0.556464052477
0	22414	671.586779651279	0.186779651279
0	22439	672.550632551789	0.195632551789
0	22506	674.34276313747	1.03276313747
0	22510	674.406438867995	0.141438867995
0	22557	676.269733114661	1.049733114661
0	22596	677.254600897887	1.079600897887
0	22612	677.898549013705	0.768549013705
0	22669	679.527450831971	0.487450831971
0	22762	681.988377595358	1.038377595358
0	22799	683.037243074669	1.132243074669
0	22814	683.32901934549	0.46901934549
0	22829	683.791506112356	5.706506112356
0	22865	684.479224139785	4.484224139785
0	22873	684.677332552242	0.862332552242
0	22898	685.580271165983	0.810271165983
0	22918	685.982511720315	0.257511720315
0	22968	687.410409198261	0.729409198261
0	23016	688.819381529277	0.228381529277
0	23104	690.953769604647	3.317769604647
0	23145	691.879899921218	1.378899921218
0	23148	691.892970147619	2.346970147619
0	23154	692.12330531703	0.66730531703
0	23194	693.51204173734	0.14604173734
0	23202	693.725540907049	1.314540907049
0	23238	694.830468616571	0.509468616571
0	23257	695.488053073562	0.212053073562
0	23326	697.622232971292	1.391232971292
0	23332	697.679808431272	0.493808431272
0	23363	699.156890701153	1.015890701153
0	23411	700.587665683392	1.491665683392
0	23435	701.147320956253	1.096320956253
0	23450	701.585564511918	0.579564511918
0	23503	703.230543934968	1.269543934968
0	23506	703.259264742354	0.343264742354
0	23568	705.548063194571	0.722063194571
0	23574	705.64758692668	1.77658692668
0	23631	707.275794565052	1.493794565052
0	23663	708.36325049513	0.67125049513
0	23710	710.199206081146	0.597206081146
0	23745	711.150394204739	2.503394204739
0	23748	711.154813908687	0.597813908687
0	23801	712.447500440886	0.935500440886
0	23841	713.622240417926	1.155240417926