file 3926100 1442429182                                         
version 2
run General-4-20150916-20:46:14-25771
attr configname General
attr datetime 20150916-20:46:14
attr experiment General
attr inifile omnetpp.ini
attr iterationvars $0=5742
attr iterationvars2 "$0=5742, $repetition=0"
attr measurement $0=5742
attr network CloudDataCenterTS
attr processid 25771
attr repetition 0
attr replication #0
attr resultdir results
attr runnumber 4
attr seedset 4

vector 4  CloudDataCenterTS.sink  responseTime_1  ETV
vector 5  CloudDataCenterTS.sink  delayTime_1  ETV
vector 6  CloudDataCenterTS.sink  queuingTime_1  ETV
vector 7  CloudDataCenterTS.sink  serviceTime_1  ETV
vector 0  CloudDataCenterTS.sink  responseTime_0  ETV
vector 1  CloudDataCenterTS.sink  delayTime_0  ETV
vector 2  CloudDataCenterTS.sink  queuingTime_0  ETV
vector 3  CloudDataCenterTS.sink  serviceTime_0  ETV
0	818 562820 67 401210 1.724095515435 10799.719604126524 13568 0.00301322849 13.987620941285 13965.977388888 32525.176983924
1	563638 493693 67 401210 1.724095515435 10799.719604126524 13568 7.36997e-06 1.07223 1351.9786516563 272.27891482089
2	1057331 423043 67 401210 1.724095515435 10799.719604126524 13568 0 9.417945199285 2332.6155075181 4380.7991131289
3	1480374 482900 67 401210 1.724095515435 10799.719604126524 13568 2.80769e-06 7.31253 9448.3867768626 13049.049131245
4	1963274 562571 64 401202 1.719598548213 10799.62292075589 13568 0.006586112224 20.223223292397 14211.687423237 33970.743891066
5	2525845 493788 64 401202 1.719598548213 10799.62292075589 13568 7.2456e-06 1.01784 1348.4649339865 269.55707898377
6	3019633 423969 64 401202 1.719598548213 10799.62292075589 13568 0 12.598896376807 2427.8812509121 4861.6250614668
7	3443602 482498 64 401202 1.719598548213 10799.62292075589 13568 2.28038e-05 7.24546 9450.9911401756 12975.240863157
