version 2
run General-0-20150910-10:49:36-6754
attr configname General
attr datetime 20150910-10:49:36
attr experiment General
attr inifile omnetpp.ini
attr iterationvars ""
attr iterationvars2 $repetition=0
attr measurement ""
attr network CloudDataCenterTS
attr processid 6754
attr repetition 0
attr replication #0
attr resultdir results
attr runnumber 0
attr seedset 0

vector 0  CloudDataCenterTS.sink  responseTime_0  ETV
vector 1  CloudDataCenterTS.sink  delayTime_0  ETV
vector 2  CloudDataCenterTS.sink  queuingTime_0  ETV
vector 3  CloudDataCenterTS.sink  serviceTime_0  ETV
vector 4  CloudDataCenterTS.sink  responseTime_1  ETV
vector 5  CloudDataCenterTS.sink  delayTime_1  ETV
vector 6  CloudDataCenterTS.sink  queuingTime_1  ETV
vector 7  CloudDataCenterTS.sink  serviceTime_1  ETV
0	38	0.817298619172	0.817298619172
0	93	2.33351844489	0.42341844489
0	113	2.651943349358	0.105143349358
0	122	2.871639189128	1.598239189128
0	160	3.870278198631	0.686778198631
0	194	4.506282575938	0.686082575938
0	244	5.424904955833	0.331304955833
0	304	6.628387731393	0.898087731393
0	314	6.872506869845	0.505506869845
0	321	6.967072695745	2.510172695745
0	395	8.341965431122	0.701565431122
0	402	8.390034833082	1.386334833082
0	411	8.475823292702	0.198733292703
0	456	9.541652342835	0.627862342835
1	38	0.817298619172	0.204313113998
1	93	2.33351844489	0.160908913913
1	113	2.651943349358	0.157428614084
1	122	2.871639189128	0.173953210494
1	160	3.870278198631	0.292814120032
1	194	4.506282575938	0.20953628529
1	244	5.424904955833	0.127635558839
1	304	6.628387731393	0.329682221591
1	314	6.872506869845	0.510115186914
1	321	6.967072695745	0.189763917267
1	395	8.341965431122	0.239186894171
1	402	8.390034833082	0.227736187434
1	411	8.475823292702	0.212825119504
1	456	9.541652342835	0.136787616063
2	38	0.817298619172	0
2	93	2.33351844489	0
2	113	2.651943349358	0.0266
2	122	2.871639189128	0.046707735274
2	160	3.870278198631	0
2	194	4.506282575938	0
2	244	5.424904955833	0
2	304	6.628387731393	0.3266
2	314	6.872506869845	0
2	321	6.967072695745	0.367398509802
2	395	8.341965431122	0
2	402	8.390034833082	0
2	411	8.475823292702	0.010801645649
2	456	9.541652342835	0
3	38	0.817298619172	1.098002505174
3	93	2.33351844489	0.747526530977
3	113	2.651943349358	0.406131735274
3	122	2.871639189128	1.86259524336
3	160	3.870278198631	0.878981078599
3	194	4.506282575938	0.961563290648
3	244	5.424904955833	0.688686396994
3	304	6.628387731393	0.726822509802
3	314	6.872506869845	0.480408682931
3	321	6.967072695745	2.438027268676
3	395	8.341965431122	0.947395536951
3	402	8.390034833082	1.643615645648
3	411	8.475823292702	0.46012352755
3	456	9.541652342835	0.976091726772
4	62	1.658936911344	1.658936911344
4	70	1.818054719402	0.544654719402
4	107	2.592867799707	0.682767799707
4	191	4.488504094996	1.305004094996
4	211	4.877274589321	1.057074589321
4	236	5.347296125504	0.253696125504
4	275	6.109781691482	3.562981691482
4	280	6.254173837281	1.797273837281
4	358	7.695478488127	1.965178488127
4	407	8.414724374402	2.047724374402
4	434	9.066923670086	2.063223670086
5	62	1.658936911344	0.223293642639
5	70	1.818054719402	0.229408930066
5	107	2.592867799707	0.347945442203
5	191	4.488504094996	0.175480200901
5	211	4.877274589321	0.132961535546
5	236	5.347296125504	0.23005425083
5	275	6.109781691482	0.440609992867
5	280	6.254173837281	0.276171425863
5	358	7.695478488127	0.187485945962
5	407	8.414724374402	0.14106596805
5	434	9.066923670086	0.267729468009
6	62	1.658936911344	0
6	70	1.818054719402	0
6	107	2.592867799707	0
6	191	4.488504094996	0
6	211	4.877274589321	0.5266
6	236	5.347296125504	0.076306053775
6	275	6.109781691482	0.596034874674
6	280	6.254173837281	0.2
6	358	7.695478488127	0.473295411418
6	407	8.414724374402	0.4
6	434	9.066923670086	0.629885542165
7	62	1.658936911344	1.920660268705
7	70	1.818054719402	0.800262789336
7	107	2.592867799707	0.819839357504
7	191	4.488504094996	1.614540894095
7	211	4.877274589321	0.882530053775
7	236	5.347296125504	0.432352820899
7	275	6.109781691482	3.011353823941
7	280	6.254173837281	1.806119411418
7	358	7.695478488127	1.789414130747
7	407	8.414724374402	1.991675406352
7	434	9.066923670086	1.650625659912
