version 2
run General-4-20150920-11:46:07-10977
attr configname General
attr datetime 20150920-11:46:07
attr experiment General
attr inifile omnetpp.ini
attr iterationvars $0=94215
attr iterationvars2 "$0=94215, $repetition=0"
attr measurement $0=94215
attr network CloudDataCenterTS
attr processid 10977
attr repetition 0
attr replication #0
attr resultdir results
attr runnumber 4
attr seedset 4

vector 0  CloudDataCenterTS.sink  responseTime_0  ETV
vector 1  CloudDataCenterTS.sink  delayTime_0  ETV
vector 2  CloudDataCenterTS.sink  queuingTime_0  ETV
vector 3  CloudDataCenterTS.sink  serviceTime_0  ETV
vector 4  CloudDataCenterTS.sink  responseTime_1  ETV
vector 5  CloudDataCenterTS.sink  delayTime_1  ETV
vector 6  CloudDataCenterTS.sink  queuingTime_1  ETV
vector 7  CloudDataCenterTS.sink  serviceTime_1  ETV
0	60	2.550679231794	-1.041069777337
0	139	7.680306209533	0.386695505421
0	198	9.334043635606	0.509783964906
0	244	11.064490037774	1.273026157178
0	263	12.348160350136	-1.499387427013
0	326	15.949028146803	-0.018714505343
0	363	17.494392914239	-2.221092477443
0	518	23.314847217234	-0.68133320312
0	653	27.323898438001	3.075969198771
0	659	27.533354974467	-3.996308791945
0	678	32.446161666819	-3.434751880064
0	681	33.226631063774	1.082406593057
0	753	37.283109992622	-0.49179690861
0	801	39.237710151897	-0.827474658735
0	829	40.385493924209	-2.071906485337
0	868	42.973976565229	-6.312830505686
0	968	51.43019142659	1.38546042711
0	1000	53.349267425227	-3.578261081954
0	1003	54.729171117516	3.50149031038
0	1043	58.37442280994	-9.38886442671
0	1089	68.658462942367	-0.154480143246
0	1142	71.099065400666	-9.029002474858
0	1177	72.900921817393	1.890472502502
0	1259	81.001878377128	-10.860686668987
0	1385	90.058161319007	9.728023892866
0	1422	93.227767968425	1.285250324194
0	1428	93.329643394812	-7.018414075755
0	1614	105.628530143797	-0.057307061591
0	1646	106.29565947762	3.246438381205
0	1678	107.259552546808	2.538136386453
0	1847	112.755021974288	-0.144475809041
0	1880	113.543438479916	2.410198780505
0	1895	114.434709477344	1.525798613031
0	1906	114.950475392713	10.031758615522
0	1913	115.554690247411	-1.688489347714
0	1965	119.10298227617	0.143016745388
0	2085	125.234348321853	2.958861589225
0	2179	129.161238675508	-1.997388167207
0	2256	133.476645294929	5.679862861304
0	2273	134.530987953718	1.63128945835
0	2283	135.472847940175	-4.998338346244
0	2370	141.806645477018	-0.730134830691
0	2440	144.303721805863	-1.436344785769
0	2444	144.468075596721	1.892535726316
0	2491	146.298583870867	-1.813389841337
0	2588	150.229525525106	0.330093656291
0	2629	151.346366299274	-0.66476478686
0	2663	152.559249246695	-0.368227607355
0	2737	155.878951895229	-7.689593867778
0	2812	165.18880158984	-3.418308433333
0	2883	169.375237626129	-1.467545418312
0	2993	173.472244356482	-1.771690953986
0	3041	175.583015649196	6.652165452599
0	3079	176.698774825181	-2.04037402573
0	3190	179.775663867951	-2.836639457942
0	3324	184.585550746169	9.198264667076
0	3354	185.497863015059	0.266962961121
0	3384	186.192741424141	0.850101264426
0	3397	186.782184140966	-2.001200372101
0	3452	191.388940030518	-3.65411888432
0	3583	197.558663936687	2.155690338746
0	3755	202.474484325185	4.915415808161
0	3768	202.740040881414	2.775940457211
0	3774	203.09985653247	3.547820205233
0	3777	203.181991259774	-0.457840349839
0	4039	213.35025147779	6.058061432694
0	4071	214.094870741966	-7.018631763073
0	4161	217.847174962974	6.671935739222
0	4232	222.293415479264	0.568703170597
0	4399	227.26466016753	24.678177150193
0	4417	227.590530188813	5.094442492056
0	4449	228.429756207209	1.073057073896
0	4460	228.900927238688	32.954617500063
0	4468	229.424872456511	1.429024013453
0	4483	230.312892633312	23.070679294841
0	4486	230.944200054583	-6.850395779665
0	4524	239.103380888778	-4.580175500316
0	4563	244.828855732822	-0.596127904226
0	4604	246.562525289421	-2.265011666707
0	4719	250.919723360607	6.756319932641
0	4744	251.774768987614	-1.040846371067
0	4772	253.957225844457	0.858326416186
0	4844	257.141197379378	0.220826849044
0	4854	257.607552130698	-0.651899581357
0	4957	261.836715598292	-0.543613192854
0	5000	263.231169406399	-8.317404702985
0	5078	265.628996781046	3.074450823384
0	5142	271.688739495608	-0.071208961985
0	5226	275.828215258853	-7.420344176026
0	5229	276.308207076911	0.920531414645
0	5337	287.601516736759	-3.235090264295
0	5397	292.20931184599	-5.145137109433
0	5481	300.8321982044	-2.195531137773
0	5523	304.614650400139	-2.560601868234
0	5592	310.151732380567	1.052456259014
0	5620	314.536183774123	-0.279051344752
0	5637	315.435460014289	-8.83871272503
0	5698	324.978190115506	-1.435266410325
0	5723	326.428168107144	1.859545293199
0	5747	330.263093734495	-6.577319372684
0	5849	338.792794118325	-2.788394150082
0	5899	342.570296497704	-2.280407121872
0	5902	342.613556670851	0.863209418921
0	5958	347.258873482801	-3.440285172421
0	5982	351.332508804285	-0.23587233416
0	6030	353.465319964211	-0.763142208546
0	6078	356.480094083279	-3.915173358247
0	6160	362.269520062733	-0.028039905336
0	6181	363.160157269902	2.482954059546
0	6313	367.912039168298	1.956552356624
0	6326	368.273825782329	-0.069687770535
0	6338	368.566062375458	3.010286639625
0	6349	369.219437489716	-1.094936350949
0	6543	375.169355696997	1.545869480007
0	6566	376.360630488915	5.409088952492
0	6606	378.34882723896	-1.124035650592
0	6616	378.538221988447	6.354841884456
0	6676	380.541716947528	-2.093449348129
0	6723	382.872254848523	3.327386299473
0	6751	383.722496839272	0.251352553579
0	6803	385.154261886593	1.226629666658
0	7007	390.038118095197	3.574014330911
0	7044	390.962897803447	1.92287008901
0	7048	391.043603075259	-0.338952029072
0	7074	392.043900803049	-2.16622096036
0	7113	395.18468430988	0.624572450035
0	7159	396.496563973681	0.323785441324
0	7199	398.198247861802	-4.117305348969
0	7287	404.095738339149	-2.37986015475
0	7326	407.506772477247	-5.644998500182
0	7477	417.879717576946	-1.900464125335
0	7502	419.004002056346	4.061910471998
0	7557	421.218412202075	0.560076528619
0	7636	423.010860867327	-0.721397620357
0	7718	424.806860543174	2.28546961877
0	7721	424.814558642544	3.630253833285
0	7852	427.779489065081	1.020968754204
0	7888	428.840798624154	3.202295059938
0	7897	429.161528640796	-1.023156046893
0	7921	430.22368143327	2.512158051972
0	7968	434.20721885563	-11.267498532299
0	8052	446.789047252741	-11.071684693055
0	8097	449.647517284989	3.817046381348
0	8170	458.172618375861	-0.368588009161
0	8218	461.208788539743	0.481837984173
0	8238	462.589366148734	-3.90757709104
0	8323	469.499034440934	0.53677744144
0	8361	471.975367701647	-0.515064082224
0	8413	473.93988012917	0.919883798623
0	8422	476.111075424393	-10.383676917816
0	8548	488.431291496349	-5.550295443145
0	8560	489.669031960614	2.470744847546
0	8563	490.352033880453	2.929857685098
0	8630	496.167017514936	-4.714364922305
0	8687	502.494580464393	0.675441715897
0	8710	503.579159717271	0.041057018199
0	8741	504.568314389673	-2.950353959614
0	8796	508.571822726154	-4.661696318765
0	8892	515.432389453341	-3.434953051507
0	8925	522.297822683083	-3.451407916935
0	8973	527.84929407902	1.953050724166
0	8988	528.362653354899	-0.696299103754
0	9160	532.857710116018	-3.291031176955
0	9337	537.826455844268	1.043759791524
0	9349	538.352766328614	8.32866343964
0	9357	538.636409348328	7.029088270148
0	9391	543.025637981257	-0.712368254728
0	9566	549.58961893296	3.02284439642
0	9569	549.617950486992	2.239723262719
0	9619	553.053574461959	-0.442881084296
0	9693	555.698390720256	1.279971562731
0	9720	556.513169947932	-1.39557249965
0	9779	561.174042657163	-0.701482699228
0	9811	562.983045406649	-4.699565597914
0	9872	568.398390564	-0.929146056565
0	9953	570.842059989953	3.098045439368
0	9982	571.408267416605	1.192628696001
0	10066	573.622595922284	1.951106080708
0	10125	575.188424573723	0.93574050477
0	10195	577.258778951569	3.210630789419
0	10256	579.407939313895	-3.362675911638
0	10318	582.521045639269	11.320367530702
0	10350	584.098951873794	0.515510914767
0	10369	585.691375948239	8.453623385304
0	10489	590.785847352395	1.617965428815
0	10622	597.376553332955	8.399240375119
0	10661	598.858523419397	1.845507903748
0	10669	599.109671399603	4.672878159278
0	10696	599.888965263196	0.191873790306
0	10784	603.292100297237	-1.70598687914
0	10817	605.266925561559	-4.777196537527
0	10906	612.433985924859	1.40410628904
0	10952	613.892601866041	-4.397694382852
0	10958	614.069929665972	2.021335199489
0	11067	620.502514710765	1.051639285906
0	11131	622.236193141416	-3.327913344439
0	11157	622.972063193325	2.256268652211
0	11195	624.619211765801	4.599896853886
0	11368	630.054640921173	3.764440126531
0	11388	630.553564021168	2.991156317794
0	11418	631.281386324245	3.335062816969
0	11442	631.911434428758	2.247060433456
0	11563	636.222919593303	-6.039433054578
0	11656	640.587641440605	12.200788779631
0	11669	641.161013286394	6.820832388849
0	11706	644.911698169115	1.808010176434
0	11735	647.520346659904	0.796682306923
0	11788	652.882148971159	-3.735878914445
0	11892	659.601789661414	-4.494535180269
0	11935	665.241324899575	-1.251302717796
0	11956	666.702647713946	0.080652886285
0	12041	669.118503442345	0.604752388895
0	12201	674.424338359705	6.160173490776
0	12297	677.505413236973	-3.446005856226
0	12303	677.818401024524	5.066850516664
0	12357	681.363163971017	-3.969294685879
0	12427	685.206951258192	3.935643738287
0	12459	686.801264995347	-0.271353482283
0	12582	691.857376303542	0.858511246799
0	12610	692.672224081113	1.427138114537
0	12615	692.850718066387	-0.670563578296
0	12674	694.672173499554	-1.707690550727
0	12687	695.057516338287	0.903379911229
0	12742	697.646104784027	-2.43322313182
0	12846	702.289993927296	0.304094149004
0	12934	704.99165594112	0.829468327656
0	12978	706.917590402276	-1.009454381928
0	13004	708.057048520162	3.660720828043
0	13070	710.239618165751	1.205241536139
0	13091	711.013137475125	-0.035784531266
0	13193	716.110891802436	-1.362446095761
0	13240	719.398478005537	-1.680106769301
0	13357	726.50333273917	-1.624818339135
0	13362	726.823536296041	8.314351507703
0	13385	728.53135667932	-0.44954199603
0	13449	730.22666541865	1.930594260279
0	13470	731.195817703446	1.978321181041
0	13503	732.58584343219	-2.076183162621
0	13538	734.951058259713	3.306303952971
0	13554	735.6381712821	-2.689456134779
0	13634	740.882839080512	-0.22556699082
0	13659	741.608526917946	-4.020680048137
0	13740	748.679371206265	0.702728784434
0	13757	749.611046598525	-1.929303169301
0	13811	753.323564016373	-0.274352444861
0	13868	755.236124039401	-0.651565320771
0	13909	756.999043123741	0.861632047892
0	13951	759.712098066113	-3.768814010591
0	13999	763.904734191707	-1.474150578549
0	14135	770.01412784347	1.670963830117
0	14278	773.074280074462	0.166107761533
0	14290	773.541825121772	4.484157517882
0	14386	776.123608577774	-0.024492764342
0	14403	776.561325487573	5.67380379839
0	14435	777.561573599859	3.887265152761
0	14543	783.546742367978	-5.695104858639
0	14546	783.783155117605	1.312789696797
0	14600	790.936349113894	1.132719576283
0	14624	792.568751305895	-4.760602479013
0	14699	798.69311600707	0.001491665965
0	14810	801.822795744094	-1.16357735856
0	14858	804.324494091826	-3.391379349047
0	14912	807.778570831524	8.616275865845
0	15022	811.01958263945	-6.179756633969
0	15069	812.428522026525	4.484927271041
0	15098	813.494656675329	2.832711552534
0	15181	818.104032935405	0.32826732617
0	15295	822.371165323643	-1.08220012411
0	15323	823.336272919469	3.518842472129
0	15439	826.653899036807	2.333001210041
0	15465	827.06356346564	-3.883080465581
0	15469	827.110734268009	0.649719809649
0	15579	833.146208945955	1.795251142231
0	15592	833.532729712765	-0.935560104108
0	15601	834.019013534814	0.658892007636
0	15618	834.798612229708	-5.057792957129
0	15697	840.302511337654	-2.801914736773
0	15742	843.794091752978	-6.506916466341
0	15762	846.062583685601	2.712326034873
0	15882	851.73630127498	-2.461513022218
0	15894	851.964994190782	1.562769552829
0	15927	856.16126312977	-3.837482081553
0	16035	862.026744928026	-0.615180495657
0	16089	864.845050975226	0.753278678927
0	16092	865.143338704062	-4.726229325688
0	16234	875.183000606212	-1.010209710561
0	16247	875.553429857714	0.910478043857
0	16324	879.043706941408	-3.925903869143
0	16421	886.247061901387	1.443805016244
0	16427	886.410069631672	-5.009111851271
0	16437	886.999726220144	1.602575217439
0	16526	893.093926439398	-0.25017079539
0	16571	894.505882191195	-1.469843507164
0	16603	895.838777251459	3.629745184334
0	16656	897.82516003047	0.125311077518
0	16765	901.571443588197	3.02678773644
0	16859	906.126193716362	-0.442071365314
0	16899	907.336192329599	-1.214733767534
0	17065	911.904396072348	1.377172668884
0	17069	911.960661145964	7.321525141313
0	17097	913.301615332959	-0.555917525259
0	17216	917.12370388858	-9.952369279939
0	17226	917.289759237752	0.598962285761
0	17246	918.18118008135	4.201208358886
0	17295	920.644353873495	6.097301074052
0	17389	929.077811461846	0.32998315825
0	17429	931.26126077808	-0.318954486508
0	17453	933.641614180956	-2.36203938081
0	17599	939.61461851964	1.99319758064
0	17643	940.834837343733	-5.172491361077
0	17732	945.158519310783	6.445420264043
0	17795	948.151607548418	1.934151177806
0	17862	951.071401147149	-11.049261468518
0	17872	951.700827754045	2.158781818471
0	17915	963.4104025536	0.527281732922
0	17935	965.045306059303	-1.066277025513
0	18035	970.289351082205	1.32352865352
0	18128	976.417240245711	0.165998440988
0	18168	977.66799181514	1.020347369315
0	18212	979.029235731198	-0.036879671439
0	18266	981.074141534513	2.881263927461
0	18351	984.363738687908	1.494522045023
0	18365	985.005838370244	0.818804633684
0	18491	990.011752244784	-4.001123597271
0	18501	990.523148535823	2.109318230696
0	18605	995.83110392902	1.378780595961
0	18624	996.3372684933	-2.834457857143
0	18673	998.114546435995	2.936913076854
0	18759	1001.986759983695	-2.294727946228
0	18833	1005.952766542373	-1.920035265228
0	18871	1008.261580659203	0.364287173916
0	18954	1011.340478009322	1.927870909889
0	18966	1011.6947537418	0.835254642237
0	19100	1016.292635395767	3.17205623595
0	19161	1018.293904175294	-3.434769831796
0	19181	1019.413493131878	2.203867245235
0	19265	1023.837365250917	1.600419418106
0	19293	1025.180918080686	-0.267744429501
0	19395	1027.494142443554	5.029800553903
0	19430	1028.282136053898	-7.375259445159
0	19465	1029.368023789799	2.769345848429
0	19480	1030.177325729373	4.116588844686
0	19620	1038.250877653836	0.968102011628
0	19710	1042.028282736369	5.022550778382
0	19730	1043.43589704001	0.088100552567
0	19751	1044.204121095738	-0.00521921786
0	19850	1048.895167217366	0.193570708834
0	19928	1050.421363501643	0.881223103124
0	19948	1050.898458464015	1.435129646763
0	19956	1051.140870632005	-2.63323159827
0	20024	1053.810186832376	-0.581406933783
0	20114	1057.693476513712	-1.52541124917
0	20206	1061.500307264913	-0.708337350691
0	20242	1062.376155768223	-1.60367686362
0	20341	1066.891083986739	4.67179097433
0	20423	1070.408288683249	-2.019753604323
0	20442	1071.552831763614	10.977309810154
0	20453	1072.680512663643	-5.430731535617
0	20489	1078.553500753731	-1.90986289996
0	20538	1082.730863334018	-5.117847762099
0	20601	1090.391379354497	1.52794294623
0	20757	1097.116600635102	-5.618409404302
0	20767	1097.794082651571	1.634733176191
0	20834	1103.887112481578	7.81547074954
0	20837	1104.160904994977	-2.990803521759
0	20912	1108.654922077655	-1.342574962032
0	20953	1110.730580305645	-1.176242070465
0	21079	1115.839429980454	-1.36577624336
0	21133	1121.094898051605	-4.524261412791
0	21233	1127.806848215261	2.050972040971
0	21283	1129.722154107753	2.050881400853
0	21375	1132.524622922617	-2.173096794638
0	21403	1133.203819407377	5.904869463071
0	21479	1135.906344194802	-10.332313652486
0	21510	1138.50499867375	7.196881805587
0	21594	1150.854744951055	-7.807141649007
0	21638	1160.539561109718	1.603694926547
0	21678	1162.757025148145	0.785330085592
0	21737	1164.453969340757	0.447895692716
0	21785	1165.864796175488	-0.749296458564
0	21838	1167.9565963911	-4.052287458401
0	21983	1173.554226821875	0.89761955767
0	21992	1173.663953523994	6.820911431159
0	22052	1175.607707538848	0.499954270767
0	22124	1177.365298440486	1.733331235338
0	22164	1178.968911690776	-3.175873631594
0	22185	1182.758486854308	-2.184128220262
0	22215	1185.361435628701	-1.610489156512
0	22221	1185.528934657072	0.247166302382
0	22371	1189.771496147396	0.944896631948
0	22493	1192.625692120172	0.37742070863
0	22527	1193.529081348315	5.413415033096
0	22668	1196.709728100102	3.348537982483
0	22671	1196.733345841568	6.132547107947
0	22766	1198.687191341302	2.777358496162
0	22831	1200.458931796942	2.795393339334
0	22860	1201.805670140402	-1.119384649517
0	22922	1205.355868488695	-2.417581809346
0	23052	1210.350417180241	1.621237503428
0	23135	1212.145531106866	1.461415251617
0	23214	1214.311307305535	-1.149378852608
0	23225	1215.214505762617	3.792524797857
0	23276	1218.052495660089	-3.609269622318
0	23298	1219.251077018965	2.198483322833
0	23342	1221.727092005394	-3.23065454914
0	23381	1225.195063897241	-1.158813487488
0	23390	1227.157784545937	-5.107400824551
0	23460	1235.215790647245	-8.174058314294
0	23618	1249.294949874684	-2.497156978632
0	23670	1253.203748276222	4.244378077097
0	23765	1255.976316057458	1.293931757425
0	23771	1256.15202384189	2.596080982508
0	23781	1256.676426360382	-1.262190186991
0	23859	1260.047319595449	-5.843506800548
0	23863	1260.131967006431	2.063870469657
0	23928	1267.118879578532	-0.536246966165
0	23941	1268.688510888558	-12.202016570316
0	24081	1282.656865849491	-9.083411247678
0	24084	1282.96361677516	0.452405047254
0	24201	1296.123422823102	-0.010180521432
0	24234	1297.416861561864	0.682730058629
0	24456	1310.059293984063	-2.070393406275
0	24489	1311.580756904594	3.850777660955
0	24580	1314.977090628838	-5.197564891818
0	24606	1317.132607981983	2.967330017875
0	24713	1323.056774295397	0.125285450937
0	24746	1325.465877439133	-0.692489217556
0	24760	1326.792392000476	-1.614609847427
0	24796	1331.934284031292	0.53762485196
0	24819	1332.362055891356	0.162660786036
0	24949	1335.790749879118	2.759048831185
0	25011	1337.073438141329	3.02318382392
0	25080	1339.380793263372	0.241518423048
0	25114	1340.63734472891	-1.766274869064
0	25135	1341.331464885465	3.712338297901
0	25198	1344.412755474465	-5.150892618935
0	25331	1352.770127934113	-1.108073096786
0	25364	1355.211142448351	-3.807833117819
0	25390	1356.242083881021	2.253420680984
0	25550	1363.060649544343	-2.755234754431
0	25615	1366.856319110111	-0.86739403541
0	25733	1370.715596602648	-4.324329228926
0	25766	1372.842383322107	4.281253729668
0	25784	1376.041551411365	-3.888598812349
0	25824	1380.407297658159	-7.60767210562
0	25886	1389.842600587372	0.803045529446
0	25914	1391.068888984623	-1.358907663871
0	26064	1396.295326639193	1.498618458685
0	26103	1397.334510926899	7.284430719874
0	26123	1397.764199084825	2.030480998696
0	26142	1398.411758035109	-2.548897852394
0	26181	1399.90784423408	3.472479167815
0	26335	1403.82337363785	2.699763737619
0	26414	1405.51786010602	2.017787311976
0	26442	1406.515744867524	2.338695951685
0	26528	1410.345798988953	2.669752171261
0	26548	1411.365132377854	0.240504043389
0	26563	1414.076261465778	-0.030608301062
0	26616	1416.143159610138	-4.922533942227
0	26641	1418.978116362284	4.293400941586
0	26663	1421.164112774279	-5.851476626016
0	26784	1428.949493814315	0.758206854499
0	26807	1430.006024408029	-0.356109646089
0	26877	1431.950512338003	0.821815473162
0	26919	1433.706724159327	1.812492075143
0	26950	1435.357578522832	-2.345403345894
0	27073	1440.680107430532	-1.388627199797
0	27221	1445.9889822072	3.010288573895
0	27268	1449.599719875816	-2.664410060771
0	27378	1454.946700936143	2.631545002123
0	27462	1457.302477019208	3.732158577656
0	27826	1466.769494952285	8.2951998399
0	27847	1467.291739611012	6.457115444195
0	27861	1467.698690391902	-1.960676375483
0	27870	1467.839892934452	10.242652964156
0	27873	1467.881617698268	3.770719682446
0	27961	1471.698136713672	-3.352331604558
0	27965	1471.715709618469	11.266836429577
0	28008	1473.514784122029	20.481265084332
0	28032	1474.22704756836	3.222226954296
0	28051	1474.852394464282	16.967012704724
0	28111	1477.340471532372	-2.479724072351
0	28218	1482.515439661758	-0.449993251485
0	28252	1484.705340630693	-2.520522313687
0	28340	1488.962859191666	33.678952704248
0	28356	1489.528777360081	-9.213906786984
0	28375	1491.443109710102	2.346578135132
0	28484	1499.128866238587	-4.262073278927
0	28542	1504.792256298748	-1.529765315256
0	28618	1508.301019790974	-0.818164188876
0	28654	1509.431711427034	-5.979204663117
0	28669	1510.146398826208	3.386943015824
0	28747	1515.833217414218	-1.023951303229
0	28771	1517.33894577715	-3.067748615314
0	28880	1522.959669636105	-5.350363879417
0	28918	1524.820840460283	4.336571525213
0	28940	1529.141458136845	-0.106708277628
0	29040	1533.699147664069	-7.185870836026
0	29093	1536.364965706953	3.66163285055
0	29179	1543.059327062562	0.666403064799
0	29328	1547.415995255083	0.46109275177
0	29562	1553.56317809768	-4.591321385745
0	29578	1553.895893987828	2.631617126861
0	29598	1554.291913334462	4.093390865423
0	29743	1558.439951427858	17.316802744905
0	29752	1558.794225450773	6.64857737897
0	29772	1560.228223844227	-0.870364197339
0	29835	1564.773826680448	21.018681845333
0	29902	1567.140548807127	18.179174074011
0	29916	1567.465679364373	1.226478630542
0	29979	1569.954967423285	5.101100236338
0	30034	1572.239594067298	0.725344705673
0	30063	1573.899728028628	-3.277844607474
0	30118	1578.078174984293	-2.624259796989
0	30159	1581.601449690453	-0.099839481736
0	30247	1584.230103947058	1.820470624176
0	30296	1585.763189162323	0.252823888372
0	30339	1587.475013147172	-10.855235911183
0	30402	1600.454894084189	1.851862327814
0	30460	1603.181333660822	1.11330065037
0	30472	1603.771551576193	-0.342923006444
0	30557	1606.453754507186	0.752082836807
0	30562	1606.570644585518	1.01109901483
0	30619	1610.548915861662	-2.44338706538
0	30682	1614.159578627428	0.095596573145
0	30843	1618.091473657974	1.9646133579
0	30887	1619.589918678061	-0.420722628927
0	30922	1620.583912448724	6.436462957625
0	30991	1623.79797185655	-0.794480894226
0	31080	1627.870171159058	-1.290205332976
0	31130	1630.610595307356	5.948406712343
0	31135	1630.95465062476	-1.359789006042
0	31145	1631.200729374314	1.601920193966
0	31219	1633.880379802323	1.248924461878
0	31267	1635.744310962136	1.80685716762
0	31291	1637.011312144516	-4.531221245504
0	31433	1645.150373019513	0.157568963691
0	31444	1645.599988947262	-1.36420190234
0	31543	1649.005677843639	0.020110272676
0	31550	1649.218974989407	0.343438632805
0	31569	1649.756983102738	0.095261467169
0	31646	1653.250946671735	-1.721538060451
0	31812	1660.521890620921	-3.486457976429
0	31866	1665.336129846165	-1.682724547149
0	31913	1667.656834282195	0.550571050394
0	31946	1669.283046562776	0.93463613381
0	31952	1669.839825431285	-0.744237207276
0	31975	1672.572898657251	-2.884274949846
0	32008	1678.281861741408	-5.143881185203
0	32113	1687.787813060146	0.489329233458
0	32157	1690.675225097825	-2.393371258468
0	32238	1694.354006897434	-5.513269404769
0	32304	1696.669467046884	6.706334187903
0	32455	1706.175199803751	2.224677172903
0	32575	1709.906518728176	3.063492401224
0	32617	1710.839483281048	-1.889501201954
0	32634	1711.332032446943	5.567915728399
0	32667	1713.037921236803	4.987833461131
0	32755	1716.948292939413	-1.410365052286
0	32823	1720.088913193687	1.229507867267
0	32836	1721.014558898038	-0.078157469073
0	32853	1721.270186977192	0.110820476774
0	32917	1723.75511767885	1.361472216195
0	32946	1725.978582817673	-2.603860152381
0	33004	1730.550080429746	-3.378900501399
0	33048	1734.567625661797	-1.74425306396
0	33128	1738.459559172698	1.05742064762
0	33149	1740.139742234816	-0.761742448749
0	33171	1741.356618449672	-0.2875603498
0	33198	1743.164393752373	-1.819584013683
0	33231	1746.009677742966	-4.714221495865
0	33297	1751.178245818466	-4.402087574568
0	33363	1757.959887827354	-2.689773814205
0	33371	1758.561765878173	2.391980132181
0	33621	1765.583585267264	1.989418553493
0	33641	1766.278610709044	3.677336866154
0	33754	1770.279848088397	2.684602135502
0	33815	1772.297520095681	10.472570464115
0	33836	1772.633750915786	11.302171212116
0	33842	1772.793516801613	0.489189410006
0	33872	1773.681921410792	-0.874122191716
0	33908	1774.657659967886	5.223684330144
0	33974	1777.178096664649	16.282830857701
0	34010	1778.106387815022	5.558092552071
0	34030	1778.607844288643	1.62101158252
0	34056	1779.177875080157	1.441103132052
0	34067	1779.311012594482	-4.763204692793
0	34127	1781.470503635153	2.705625702762
0	34272	1788.206272732128	3.95611629191
0	34336	1790.945955732863	0.64145769898
0	34359	1792.146170595738	-1.007984191258
0	34365	1792.96786960579	4.608471575054
0	34388	1794.48847087806	0.203602338002
0	34496	1799.440704327084	-6.800113264338
0	34507	1800.466015284948	1.982813351478
0	34546	1807.757950424829	-3.918965258165
0	34593	1810.40084657431	2.942464332221
0	34738	1816.008722383406	2.164885497465
0	34804	1818.993345287382	-1.921740079004
0	34852	1821.817979738927	3.937294752788
0	34870	1823.113428899481	-3.632531110882
0	34956	1828.495335467301	1.236501349072
0	34972	1828.959478275357	-2.133430721981
0	35081	1834.125629845271	-1.510231401118
0	35117	1838.810096821206	-7.079844033556
0	35270	1853.092818647098	3.975551243812
0	35276	1854.007950391372	-2.455926182586
0	35366	1857.752723612366	0.455983058853
0	35426	1859.846381202355	-0.175029330346
0	35440	1860.293046941732	-1.350705911778
0	35521	1863.219102573399	0.822483270371
0	35605	1866.819462425818	-1.366085604946
0	35657	1868.592442812182	2.237384093848
0	35669	1868.755498440094	-3.591760578854
0	35702	1870.311712739695	1.711228342075
0	35799	1874.310508976612	-1.057328649145
0	35889	1878.125840981456	-2.446275750697
0	35892	1878.139669038313	2.293584290303
0	35920	1880.887901381037	-13.394695530173
0	35993	1896.494623850308	-4.699166891985
0	36003	1896.876207281092	0.681481608848
0	36045	1901.80439452931	-0.601830677664
0	36130	1905.543843596025	1.926740309416
0	36155	1906.700923981716	-0.303642427363
0	36238	1913.58668173534	-1.437247404982
0	36282	1916.063771304614	-0.439898805206
0	36387	1920.498642949046	1.824468078338
0	36503	1924.221848255794	-2.534701011602
0	36513	1924.809584724077	3.586185671312
0	36538	1927.69937161223	-3.02785720913
0	36599	1931.526320165615	-2.594451190163
0	36647	1934.53375370266	-2.055077057711
0	36742	1940.901989063637	1.780138580952
0	36784	1942.679346234243	0.730797669041
0	36787	1942.952720328926	-1.693849360469
0	36858	1946.914904514528	-0.170810903713
0	36880	1948.934236446446	-2.52703514586
0	36935	1953.671264560948	-1.64334885207
0	36953	1954.695425748333	1.844544305038
0	36980	1956.0377682014	-2.457637332841
0	37135	1963.161143381296	1.878269089829
0	37196	1964.70413389105	-0.563418165107
0	37287	1968.081281256721	-3.107784530389
0	37325	1969.196698899801	10.58007558976
0	37349	1970.204490740321	7.543844688284
0	37390	1971.86389491258	-1.393052360826
0	37413	1973.063017398903	5.737409895489
0	37437	1974.737984078574	-6.743541084198
0	37495	1981.861487256536	-1.498613711565
0	37724	1988.845463420678	5.466706822313
0	37751	1989.713623403483	3.723812501512
0	37781	1990.899908375153	3.166081079655
0	37825	1991.95988771813	-2.577115823698
0	37828	1991.978458549918	1.383782340102
0	37844	1992.378790683234	1.269116035242
0	38000	1997.909400537424	2.304316963701
0	38010	1998.171350491625	-6.120887713681
0	38171	2006.526447139239	-1.913922114596
0	38195	2007.66181282992	3.212330728441
0	38312	2015.055488849788	9.758229086079
0	38325	2015.792460671813	0.718151713256
0	38333	2016.948032780353	-0.596747497576
0	38355	2019.264557393533	-1.927512932234
0	38381	2021.600328973531	-4.938386337536
0	38508	2027.683742143786	-2.118456788169
0	38585	2031.27412603397	-0.592958326545
0	38614	2032.538180295278	5.943379579918
0	38640	2033.598298675675	-1.419590302352
0	38716	2036.107299965242	0.71752729283
0	38792	2038.6609998251	1.927108746569
0	38862	2040.45689414334	3.643003110125
0	38869	2040.804778077002	1.313666446674
0	38911	2043.00536776959	9.845435650159
0	38956	2044.939533292412	-0.065985861474
0	39040	2047.363094539753	1.495388052628
0	39080	2049.138743952256	-0.173095109044
0	39151	2053.853029291159	-3.674327890885
0	39173	2054.744008457101	10.565023717608
0	39196	2059.805331085345	-0.742215995234
0	39261	2063.60517900177	1.163516022697
0	39270	2064.05436352406	-0.229623089672
0	39283	2065.160758888401	-3.232240305212
0	39338	2069.348099291839	-1.958600804001
0	39517	2076.072913838965	4.592558730048
0	39540	2077.647963354158	0.202795733779
0	39572	2080.564590224382	-0.202940905432
0	39658	2083.508738755722	-0.0132571914
0	39807	2089.519711393843	1.358877332692
0	39863	2092.112717782517	4.262798696931
0	39995	2095.375374725363	12.795144743711
0	40008	2095.723961048603	1.389828265459
0	40012	2095.766139803679	-0.396025112127
0	40016	2095.955408468486	3.80413594244
0	40054	2097.485164352708	-2.103153791746
0	40122	2101.512960311885	-1.877988694031
0	40209	2107.864452385267	-0.409424940603
0	40229	2108.773328262174	2.943091685941
0	40244	2109.027151264135	0.228999305585
0	40277	2109.848740009959	0.358352470636
0	40402	2112.944263797778	1.302197308602
0	40458	2115.453609021012	5.366312502699
0	40491	2117.345804820408	0.035890852947
0	40551	2120.551098710847	0.547450935285
0	40568	2120.906188801355	0.024353026434
0	40615	2122.467800679594	-0.281395667572
0	40655	2123.908944200807	-1.923188495436
0	40705	2126.237714453751	-5.45292838523
0	40759	2132.635630581772	-1.960360872557
0	40815	2135.040066394531	-4.333804090442
0	40846	2141.125157336574	-11.630275226385
0	41000	2156.170269010289	3.19962252775
0	41061	2160.433173505604	-1.410986901325
0	41072	2161.202634386716	1.933708427618
0	41159	2164.955852767498	0.224467069776
0	41228	2167.337707434856	-3.919569471984
0	41281	2169.287404138754	2.490663566616
0	41323	2171.080238247797	7.844429000688
0	41356	2172.654794817366	-6.622218748196
0	41408	2179.722135418494	0.430506551625
0	41416	2180.056030807409	-4.860979808925