file 230694 1441621018                                          
version 2
run General-0-20150907-12:16:29-13997
attr configname General
attr datetime 20150907-12:16:29
attr experiment General
attr inifile omnetpp.ini
attr iterationvars ""
attr iterationvars2 $repetition=0
attr measurement ""
attr network CloudDataCenterTS
attr processid 13997
attr repetition 0
attr replication #0
attr resultdir results
attr runnumber 0
attr seedset 0

vector 0  CloudDataCenterTS.sink  responseTime_0  ETV
vector 1  CloudDataCenterTS.sink  delayTime_0  ETV
vector 2  CloudDataCenterTS.sink  queuingTime_0  ETV
vector 3  CloudDataCenterTS.sink  serviceTime_0  ETV
vector 4  CloudDataCenterTS.sink  responseTime_1  ETV
vector 5  CloudDataCenterTS.sink  delayTime_1  ETV
vector 6  CloudDataCenterTS.sink  queuingTime_1  ETV
vector 7  CloudDataCenterTS.sink  serviceTime_1  ETV
0	797 29141 45 23674 0.73357684205 376.507921125157 745 0.040938908163 25.298334399888 2563.0893275641 20194.83175149
1	29938 29094 45 23674 0.73357684205 376.507921125157 745 0.005020370171 1.050154127841 156.92757380196 49.602689696738
2	59032 27872 45 23674 0.73357684205 376.507921125157 745 0 19.334424597232 1826.9567268037 12160.076612443
3	86904 29104 45 23674 0.73357684205 376.507921125157 745 0.029067891113 8.536593044176 1106.4390876797 2547.0230063668
4	116008 29083 115 23634 1.728039483582 375.876545139786 742 0.062302316872 52.74545425953 3959.4025612339 59623.342557843
5	145091 28966 115 23634 1.728039483582 375.876545139786 742 0.000921245622 0.915148860468 154.81993649026 49.21048119476
6	174057 27685 115 23634 1.728039483582 375.876545139786 742 0 48.836158188978 3242.4472667858 46972.311720612
7	201742 28952 115 23634 1.728039483582 375.876545139786 742 0.028272461717 5.526731620654 1090.9640820517 2350.2540074492
