file 1116254 1442742366                                         
version 2
run General-3-20150920-11:46:04-10972
attr configname General
attr datetime 20150920-11:46:04
attr experiment General
attr inifile omnetpp.ini
attr iterationvars $0=74063
attr iterationvars2 "$0=74063, $repetition=0"
attr measurement $0=74063
attr network CloudDataCenterTS
attr processid 10972
attr repetition 0
attr replication #0
attr resultdir results
attr runnumber 3
attr seedset 3

vector 0  CloudDataCenterTS.sink  responseTime_0  ETV
vector 1  CloudDataCenterTS.sink  delayTime_0  ETV
vector 2  CloudDataCenterTS.sink  queuingTime_0  ETV
vector 3  CloudDataCenterTS.sink  serviceTime_0  ETV
vector 4  CloudDataCenterTS.sink  responseTime_1  ETV
vector 5  CloudDataCenterTS.sink  delayTime_1  ETV
vector 6  CloudDataCenterTS.sink  queuingTime_1  ETV
vector 7  CloudDataCenterTS.sink  serviceTime_1  ETV
0	821 149361 60 202179 2.550679231794 10795.256788126496 3581 -20.532186649072 30.597783979434 1113.72069058 67272.657601421
1	150182 147503 60 202179 2.550679231794 10795.256788126496 3581 4.3473617e-05 7.981336056851 2192.4344009183 2781.7685784947
2	297685 113686 60 202179 2.550679231794 10795.256788126496 3581 0 20.270951655152 1941.2318739874 9566.3062164144
3	411371 147542 60 202179 2.550679231794 10795.256788126496 3581 0.001246142442 20.892948883573 7709.9695637343 32933.716354196
4	558913 149496 63 202232 3.01737346447 10798.79147897224 3582 -21.635549615711 33.0784268069 369.66654730235 58157.963142997
5	708409 147623 63 202232 3.01737346447 10798.79147897224 3582 4.7246e-05 4.857397091023 2157.31818274 2522.4323247915
6	856032 112598 63 202232 3.01737346447 10798.79147897224 3582 0 21.247188956021 1522.0940992197 6132.268938789
7	968630 147624 63 202232 3.01737346447 10798.79147897224 3582 0.000413951459 22.002305455656 7409.4903040619 30913.365535846
