file 1142306 1441749078                                         
version 2
run General-0-20150908-23:50:58-9756
attr configname General
attr datetime 20150908-23:50:58
attr experiment General
attr inifile omnetpp.ini
attr iterationvars ""
attr iterationvars2 $repetition=0
attr measurement ""
attr network CloudDataCenterTS
attr processid 9756
attr repetition 0
attr replication #0
attr resultdir results
attr runnumber 0
attr seedset 0

vector 0  CloudDataCenterTS.sink  responseTime_0  ETV
vector 1  CloudDataCenterTS.sink  delayTime_0  ETV
vector 2  CloudDataCenterTS.sink  queuingTime_0  ETV
vector 3  CloudDataCenterTS.sink  serviceTime_0  ETV
vector 4  CloudDataCenterTS.sink  responseTime_1  ETV
vector 5  CloudDataCenterTS.sink  delayTime_1  ETV
vector 6  CloudDataCenterTS.sink  queuingTime_1  ETV
vector 7  CloudDataCenterTS.sink  serviceTime_1  ETV
0	795 152654 38 118387 0.817298619172 3599.177190518811 3767 0.005401367376 10.93222716526 4198.3529954262 9935.0104347245
1	153449 152675 38 118387 0.817298619172 3599.177190518811 3767 0.251188603919 1.274434212416 1346.3667981302 524.03524966462
2	306124 112779 38 118387 0.817298619172 3599.177190518811 3767 0 6.363218917679 584.42818611785 1004.9595591931
3	418903 152685 38 118387 0.817298619172 3599.177190518811 3767 0.718997385049 8.446380318333 5918.9045482607 12028.752635868
4	571588 152814 50 118402 1.749132674125 3599.664925908505 3769 0.004763934393 12.76228830017 4074.2029351191 9225.3609533748
5	724402 152790 50 118402 1.749132674125 3599.664925908505 3769 0.251193874332 1.209538114899 1347.7491232619 525.83029528053
6	877192 112320 50 118402 1.749132674125 3599.664925908505 3769 0 4.663155277846 519.80591862268 762.0164864342
7	989512 152794 50 118402 1.749132674125 3599.664925908505 3769 0.718906959734 9.755111389989 5860.7786751374 11777.134582773
