version 2
run General-3-20150920-11:46:04-10972
attr configname General
attr datetime 20150920-11:46:04
attr experiment General
attr inifile omnetpp.ini
attr iterationvars $0=74063
attr iterationvars2 "$0=74063, $repetition=0"
attr measurement $0=74063
attr network CloudDataCenterTS
attr processid 10972
attr repetition 0
attr replication #0
attr resultdir results
attr runnumber 3
attr seedset 3

vector 0  CloudDataCenterTS.sink  responseTime_0  ETV
vector 1  CloudDataCenterTS.sink  delayTime_0  ETV
vector 2  CloudDataCenterTS.sink  queuingTime_0  ETV
vector 3  CloudDataCenterTS.sink  serviceTime_0  ETV
vector 4  CloudDataCenterTS.sink  responseTime_1  ETV
vector 5  CloudDataCenterTS.sink  delayTime_1  ETV
vector 6  CloudDataCenterTS.sink  queuingTime_1  ETV
vector 7  CloudDataCenterTS.sink  serviceTime_1  ETV
0	60	2.550679231794	-1.041069777337
0	145	7.680306209533	0.386695505421
0	204	9.334043635606	0.509783964906
0	251	11.064490037774	1.273026157178
0	267	12.348160350136	-1.499387427013
0	338	15.949028146803	-0.018714505343
0	375	17.494392914239	-2.221092477443
0	530	23.314847217234	-0.68133320312
0	659	27.159494949407	2.911565710177
0	671	27.533354974467	-3.996308791945
0	693	32.446161666819	-3.434751880064
0	696	32.835023225922	0.690798755205
0	762	36.959526197452	-0.81538070378
0	816	39.237710151897	-0.827474658735
0	843	40.311576436461	-2.145823973085
0	883	42.973976565229	-6.312830505686
0	981	51.43019142659	1.38546042711
0	1015	53.349267425227	-3.578261081954
0	1018	56.030122910167	4.802442103031
0	1071	58.608738355177	-9.154548881473
0	1118	68.890274978642	0.077331893029
0	1182	71.125650226398	-9.002417649126
0	1201	71.95754211006	0.947092795169
0	1298	81.067093966083	-10.795471080032
0	1412	89.524663495959	9.194526069818
0	1446	93.227767968425	1.285250324194
0	1452	93.329643394812	-7.018414075755
0	1632	105.628530143797	-0.057307061591
0	1664	106.29565947762	3.246438381205
0	1699	107.259552546808	2.538136386453
0	1874	112.755021974288	-0.144475809041
0	1925	114.956458443807	3.823218744396
0	1933	115.206088398404	2.297177534091
0	1939	115.554690247411	-1.688489347714
0	1959	116.503918514245	11.585201737054
0	1999	119.253814371462	0.29384884068
0	2124	125.234348321853	2.958861589225
0	2225	129.161238675508	-1.997388167207
0	2250	130.716836470074	2.920054036449
0	2292	133.191002797516	0.291304302148
0	2316	135.472847940175	-4.998338346244
0	2393	141.806645477018	-0.730134830691
0	2448	144.120236277041	-1.619830314591
0	2456	144.468075596721	1.892535726316
0	2499	146.298583870867	-1.813389841337
0	2616	150.229525525106	0.330093656291
0	2641	151.012458353784	-0.99867273235
0	2689	152.559249246695	-0.368227607355
0	2770	155.197842270342	-8.370703492665
0	2842	165.18880158984	-3.418308433333
0	2913	169.375237626129	-1.467545418312
0	3023	173.472244356482	-1.771690953986
0	3071	175.583015649196	6.652165452599
0	3109	176.698774825181	-2.04037402573
0	3217	179.775663867951	-2.836639457942
0	3372	184.695933055649	9.308646976556
0	3405	185.497863015059	0.266962961121
0	3431	186.192741424141	0.850101264426
0	3445	186.782184140966	-2.001200372101
0	3482	191.388940030518	-3.65411888432
0	3609	197.412347748766	2.009374150825
0	3769	201.452348072623	3.893279555599
0	3774	201.523652778349	1.971616451112
0	3806	202.434220128092	2.470119703889
0	3822	203.181991259774	-0.457840349839
0	4099	213.35025147779	6.058061432694
0	4129	214.094870741966	-7.018631763073
0	4202	216.841116677211	5.665877453459
0	4278	221.770719526075	25.82440978745
0	4281	221.82167559196	19.235192574623
0	4287	221.874580330544	0.149868021877
0	4409	225.440099001219	18.197885662748
0	4421	225.917087149088	-1.439611984225
0	4483	228.596344030615	6.100256333858
0	4507	230.486592797168	-7.30800303708
0	4510	230.517731408532	2.521882965474
0	4557	239.496016405136	-4.187539983958
0	4595	245.028491424278	-0.39649221277
0	4631	246.562525289421	-2.265011666707
0	4745	250.919723360607	6.756319932641
0	4776	252.499230256146	-0.316385102535
0	4799	253.957225844457	0.858326416186
0	4863	257.450725011173	-0.808726700882
0	4875	258.028502111591	1.108131581257
0	4996	262.909894764163	0.529565973017
0	5016	263.434156441019	-8.114417668365
0	5085	265.628996781046	3.074450823384
0	5160	271.688739495608	-0.071208961985
0	5244	275.960377137828	-7.288182297051
0	5247	276.262624895237	0.874949232971
0	5358	287.601516736759	-3.235090264295
0	5418	292.20931184599	-5.145137109433
0	5509	300.8321982044	-2.195531137773
0	5562	304.614650400139	-2.560601868234
0	5628	310.151732380567	1.052456259014
0	5659	314.536183774123	-0.279051344752
0	5676	315.435460014289	-8.83871272503
0	5740	324.978190115506	-1.435266410325
0	5765	326.428168107144	1.859545293199
0	5786	330.263093734495	-6.577319372684
0	5888	338.792794118325	-2.788394150082
0	5938	342.570296497704	-2.280407121872
0	5941	342.613556670851	0.863209418921
0	5997	347.258873482801	-3.440285172421
0	6018	351.332508804285	-0.23587233416
0	6060	353.027564850573	-1.200897322184
0	6120	356.480094083279	-3.915173358247
0	6195	362.222105771046	1.54490256069
0	6213	362.747215118445	0.449655150376
0	6328	366.527286486375	0.971510750542
0	6350	367.495015566236	-0.848497986628
0	6357	367.912039168298	1.956552356624
0	6379	369.017301196597	-1.297072644068
0	6579	375.121165297125	1.497679080135
0	6606	376.312440089043	5.36089855262
0	6620	377.234630285861	5.05125018187
0	6623	377.645235536374	-1.827627353178
0	6700	380.541716947528	-2.093449348129
0	6744	382.872254848523	3.327386299473
0	6774	383.722496839272	0.251352553579
0	6827	385.154261886593	1.226629666658
0	7030	390.038118095197	3.574014330911
0	7065	390.962897803447	1.92287008901
0	7069	391.043603075259	-0.338952029072
0	7092	392.043900803049	-2.16622096036
0	7133	395.18468430988	0.624572450035
0	7176	396.496563973681	0.323785441324
0	7213	398.198247861802	-4.117305348969
0	7310	404.095738339149	-2.37986015475
0	7350	407.268809250321	-5.882961727108
0	7507	417.80887482024	-1.971306882041
0	7557	420.061702959654	5.119611375306
0	7611	421.779881352013	1.121545678557
0	7670	423.010860867327	-0.721397620357
0	7746	424.814558642544	3.630253833285
0	7794	426.015103053733	3.493712129329
0	7879	427.779489065081	1.020968754204
0	7939	429.161528640796	-1.023156046893
0	7944	429.236403773107	3.597900208891
0	7957	429.927114803363	2.215591422065
0	8004	433.906695339802	-11.568022048127
0	8082	446.789047252741	-11.071684693055
0	8124	449.647517284989	3.817046381348
0	8200	458.172618375861	-0.368588009161
0	8248	461.208788539743	0.481837984173
0	8271	462.589366148734	-3.90757709104
0	8373	470.399661801281	1.437404801787
0	8386	471.418630283773	-1.071801500098
0	8447	473.954959957604	0.934963627057
0	8452	476.065466202692	-10.429286139517
0	8574	488.734026086646	-5.247560852848
0	8584	490.597434243901	3.399147130833
0	8587	490.873862638005	3.45168644265
0	8654	496.167017514936	-4.714364922305
0	8719	502.978539872538	1.159401124042
0	8753	504.107166007902	0.56906330883
0	8768	504.877377896853	-2.641290452434
0	8820	508.887769039213	-4.345750005706
0	8916	514.924957820629	-3.942384684219
0	8946	522.261206384132	-3.488024215886
0	8994	527.84929407902	1.953050724166
0	9011	528.362653354899	-0.696299103754
0	9180	532.857710116018	-3.291031176955
0	9346	537.34956157525	7.325458686276
0	9366	537.826455844268	1.043759791524
0	9385	538.636409348328	7.029088270148
0	9415	541.584959074678	-2.153047161307
0	9567	548.913832959965	1.535605735692
0	9587	549.58961893296	3.02284439642
0	9640	553.053574461959	-0.442881084296
0	9700	555.190251833949	0.771832676424
0	9741	556.513169947932	-1.39557249965
0	9806	560.420511839568	-1.455013516823
0	9838	562.983045406649	-4.699565597914
0	9896	568.398390564	-0.929146056565
0	9982	570.842059989953	3.098045439368
0	10011	571.408267416605	1.192628696001
0	10101	573.622595922284	1.951106080708
0	10165	575.188424573723	0.93574050477
0	10183	575.63343889827	1.58529073612
0	10292	579.081336350347	7.88065824178
0	10303	579.407939313895	-3.362675911638
0	10351	582.298317063318	5.060564500383
0	10376	583.768472778278	0.185031819251
0	10510	590.368493261343	1.200611337763
0	10635	597.838124147304	0.825108631655
0	10755	601.364431678544	12.387118720708
0	10777	602.471207260042	2.774115787152
0	10782	602.664127070619	8.227333830294
0	10788	603.043134511521	-1.954952664856
0	10826	605.266925561559	-4.777196537527
0	10952	612.909633976497	1.879754340678
0	10980	614.069929665972	2.021335199489
0	10995	614.445804085908	-3.844492162985
0	11089	620.502514710765	1.051639285906
0	11166	622.613678870778	-2.950427615077
0	11179	622.972063193325	2.256268652211
0	11220	624.783581390038	4.764266478123
0	11376	629.069710968893	1.507303265519
0	11419	630.054640921173	3.764440126531
0	11466	631.281386324245	3.335062816969
0	11492	631.911434428758	2.247060433456
0	11614	636.222919593303	-6.039433054578
0	11660	638.044680046114	9.65782738514
0	11689	639.282461349842	4.942280452297
0	11739	645.706501825484	2.602813832803
0	11771	647.520346659904	0.796682306923
0	11824	652.952730124999	-3.665297760605
0	11928	659.601789661414	-4.494535180269
0	11966	665.241324899575	-1.251302717796
0	11986	666.702647713946	0.080652886285
0	12074	669.118503442345	0.604752388895
0	12288	676.485186293076	8.221021424147
0	12325	677.659494942961	-3.291924150238
0	12376	680.76746775734	8.01591724948
0	12398	681.350641382316	-3.98181727458
0	12463	684.540696061237	3.269388541332
0	12490	686.462309686474	-0.610308791156
0	12613	691.857376303542	0.858511246799
0	12640	692.672224081113	1.427138114537
0	12644	692.850718066387	-0.670563578296
0	12694	694.672173499554	-1.707690550727
0	12706	695.057516338287	0.903379911229
0	12769	697.646104784027	-2.43322313182
0	12878	702.289993927296	0.304094149004
0	12965	704.99165594112	0.829468327656
0	13005	706.917590402276	-1.009454381928
0	13088	710.135506792171	5.739179100052
0	13118	711.013137475125	-0.035784531266
0	13134	711.515415769191	2.481039139579
0	13220	716.842197669785	-0.631140228412
0	13263	719.665265970696	-1.413318804142
0	13387	726.50333273917	-1.624818339135
0	13393	726.823536296041	8.314351507703
0	13414	728.53135667932	-0.44954199603
0	13491	730.856219720753	2.560148562382
0	13514	731.856117690988	2.638621168583
0	13539	732.868170169824	-1.793856424987
0	13573	734.951058259713	3.306303952971
0	13590	735.6381712821	-2.689456134779
0	13667	741.608526917946	-4.020680048137
0	13671	741.649402579601	0.540996508269
0	13787	749.594420478318	1.617778056487
0	13790	749.611046598525	-1.929303169301
0	13861	753.858528290936	0.260611829702
0	13901	755.236124039401	-0.651565320771
0	13947	757.198391925183	1.060980849334
0	13991	759.712098066113	-3.768814010591
0	14038	763.904734191707	-1.474150578549
0	14187	770.464191828253	2.1210278149
0	14306	773.074280074462	0.166107761533
0	14322	773.541825121772	4.484157517882
0	14414	776.123608577774	-0.024492764342
0	14496	778.905686876976	5.231378429878
0	14516	779.534893725316	8.647372036133
0	14591	783.546742367978	-5.695104858639
0	14605	786.783113997849	4.312748577041
0	14647	791.444699680076	1.641070142465
0	14667	792.568751305895	-4.760602479013
0	14747	798.69311600707	0.001491665965
0	14856	801.822795744094	-1.16357735856
0	14900	804.10613442684	-3.609739014033
0	14930	806.970090095607	7.807795129928
0	15062	811.01958263945	-6.179756633969
0	15115	812.428522026525	4.484927271041
0	15144	813.494656675329	2.832711552534
0	15218	818.104032935405	0.32826732617
0	15323	822.371165323643	-1.08220012411
0	15353	823.336272919469	3.518842472129
0	15491	827.110734268009	0.649719809649
0	15502	827.236052375805	-3.710591555416
0	15510	827.428592409152	3.107694582386
0	15621	833.146208945955	1.795251142231
0	15634	833.532729712765	-0.935560104108
0	15643	834.019013534814	0.658892007636
0	15660	834.798612229708	-5.057792957129
0	15733	840.302511337654	-2.801914736773
0	15778	843.794091752978	-6.506916466341
0	15801	846.062583685601	2.712326034873
0	15936	851.73630127498	-2.461513022218
0	15948	851.964994190782	1.562769552829
0	15984	856.16126312977	-3.837482081553
0	16088	862.026744928026	-0.615180495657
0	16134	864.845050975226	0.753278678927
0	16140	865.143338704062	-4.726229325688
0	16259	874.315706039003	-0.327245774854
0	16280	875.183000606212	-1.010209710561
0	16342	878.385900028031	-4.58371078252
0	16461	886.247061901387	1.443805016244
0	16466	886.410069631672	-5.009111851271
0	16469	886.492848681298	1.095697678593
0	16572	893.093926439398	-0.25017079539
0	16616	894.293566643138	-1.682159055221
0	16634	895.058934471314	2.849902404189
0	16698	897.82516003047	0.125311077518
0	16796	900.796641748861	2.251985897104
0	16900	906.126193716362	-0.442071365314
0	16943	907.336192329599	-1.214733767534
0	17095	911.960661145964	7.321525141313
0	17120	912.696246807509	2.169023404045
0	17137	913.301615332959	-0.555917525259
0	17268	917.12370388858	-9.952369279939
0	17273	917.289759237752	0.598962285761
0	17288	918.18118008135	4.201208358886
0	17318	919.934108208037	5.387055408594
0	17420	929.077811461846	0.32998315825
0	17453	930.681237899354	-0.898977365234
0	17480	933.641614180956	-2.36203938081
0	17615	938.961958824518	1.340537885518
0	17680	940.807434298989	-5.199894405821
0	17785	946.200309084476	7.487210037736
0	17828	948.151607548418	1.934151177806
0	17895	951.071401147149	-11.049261468518
0	17905	951.700827754045	2.158781818471
0	17954	963.4104025536	0.527281732922
0	17974	965.045306059303	-1.066277025513
0	18074	970.289351082205	1.32352865352
0	18185	977.66799181514	1.020347369315
0	18227	979.029235731198	-0.036879671439
0	18277	981.122665590818	4.871423786095
0	18370	985.005838370244	0.818804633684
0	18400	986.388351482564	8.195473875512
0	18498	990.011752244784	-4.001123597271
0	18504	990.097154333914	7.227937691029
0	18567	993.217539856719	4.803709551592
0	18639	995.83110392902	1.378780595961
0	18659	996.3372684933	-2.834457857143
0	18712	998.114546435995	2.936913076854
0	18827	1002.83127007367	-1.450217856253
0	18883	1005.567086862578	-2.305714945023
0	18937	1008.261580659203	0.364287173916
0	19027	1011.076655484893	1.66404838546
0	19031	1011.168104516639	0.308605417076
0	19138	1015.963389002343	2.842809842526
0	19183	1018.043686108683	-3.684987898407
0	19221	1020.303251362375	3.093625475732
0	19285	1023.837365250917	1.600419418106
0	19313	1025.180918080686	-0.267744429501
0	19446	1028.855787031832	-6.801608467225
0	19463	1029.368023789799	2.769345848429
0	19494	1030.225210949233	7.760869059582
0	19534	1032.55943969834	6.498702813653
0	19651	1038.62442136259	1.341645720382
0	19723	1042.028282736369	5.022550778382
0	19740	1043.43589704001	0.088100552567
0	19765	1044.461018478226	0.251678164628
0	19867	1048.895167217366	0.193570708834
0	19945	1050.421363501643	0.881223103124
0	19964	1050.898458464015	1.435129646763
0	19973	1051.140870632005	-2.63323159827
0	20039	1053.810186832376	-0.581406933783
0	20138	1057.693476513712	-1.52541124917
0	20231	1061.500307264913	-0.708337350691
0	20264	1062.376155768223	-1.60367686362
0	20348	1065.62057716585	3.401284153441
0	20408	1068.164599976306	-4.263442311266
0	20414	1068.457212247853	7.881690294393
0	20474	1072.756253776464	-5.354990422796
0	20498	1078.451441548854	-2.011922104837
0	20555	1083.411113238115	-4.437597858002
0	20602	1089.80460975641	0.941173348143
0	20769	1097.069493431459	-5.665516607945
0	20781	1097.794082651571	1.634733176191
0	20834	1102.740005277935	6.668363545897
0	20849	1104.181871614144	-2.969836902592
0	20922	1108.654922077655	-1.342574962032
0	20960	1110.730580305645	-1.176242070465
0	21070	1115.507159800907	-1.698046422907
0	21145	1121.094898051605	-4.524261412791
0	21277	1128.98315484052	3.22727866623
0	21335	1130.953052500759	3.281779793859
0	21410	1132.889574738952	-1.808144978303
0	21434	1133.568508997374	6.269559053068
0	21490	1136.171791221026	-10.066866626262
0	21547	1140.460042043657	9.151925175494
0	21615	1149.789494080956	-8.872392519106
0	21659	1160.106251607491	1.17038542432
0	21667	1161.875219233152	-0.096475829401
0	21735	1163.881136815018	-0.124936833023
0	21788	1165.435860207616	-1.178232426436
0	21858	1167.69962232227	-4.309261527231
0	21985	1173.047367840477	6.204325747642
0	21993	1173.322217911282	0.665610647077
0	22126	1177.365298440486	1.733331235338
0	22131	1177.40303762124	2.295284353159
0	22189	1180.81165586888	-1.33312945349
0	22200	1182.758486854308	-2.184128220262
0	22232	1185.361435628701	-1.610489156512
0	22238	1185.528934657072	0.247166302382
0	22393	1189.771496147396	0.944896631948
0	22514	1192.625692120172	0.37742070863
0	22553	1193.529081348315	5.413415033096
0	22701	1196.709728100102	3.348537982483
0	22704	1196.733345841568	6.132547107947
0	22805	1198.687191341302	2.777358496162
0	22873	1200.458931796942	2.795393339334
0	22905	1201.863160530815	-1.061894259104
0	22975	1205.380185231689	-2.393265066352
0	23076	1210.350417180241	1.621237503428
0	23218	1213.950436535881	3.266320680632
0	23246	1215.214505762617	3.792524797857
0	23260	1215.985945594151	0.525259436008
0	23300	1218.052495660089	-3.609269622318
0	23313	1218.782946622779	1.730352926647
0	23363	1221.712016607782	-3.245729946752
0	23399	1225.195063897241	-1.158813487488
0	23411	1226.972267508736	-5.292917861752
0	23480	1235.215790647245	-8.174058314294
0	23651	1249.294949874684	-2.497156978632
0	23688	1252.006103780802	3.046733581677
0	23770	1254.95437934647	1.398436487088
0	23802	1255.976316057458	1.293931757425
0	23805	1256.078781864962	-1.859834682411
0	23888	1260.047319595449	-5.843506800548
0	23893	1260.131967006431	2.063870469657
0	23955	1267.118879578532	-0.536246966165
0	23968	1268.688510888558	-12.202016570316
0	24100	1282.485211548325	-0.026000179581
0	24108	1282.700562085966	-9.039715011203
0	24228	1296.123422823102	-0.010180521432
0	24268	1297.801839027062	1.067707523827
0	24493	1310.75808840619	-1.371598984148
0	24567	1313.196900436085	5.466921192446
0	24604	1314.977090628838	-5.197564891818
0	24633	1317.132607981983	2.967330017875
0	24742	1323.056774295397	0.125285450937
0	24782	1325.147351083995	-1.011015572694
0	24796	1326.792392000476	-1.614609847427
0	24825	1331.394093586017	-0.002565593315
0	24860	1332.362055891356	0.162660786036
0	24952	1334.96197570055	1.930274652617
0	25041	1337.073438141329	3.02318382392
0	25112	1339.380793263372	0.241518423048
0	25144	1340.574278153294	-1.82934144468
0	25152	1340.768398309849	3.149271722285
0	25224	1344.412755474465	-5.150892618935
0	25367	1352.770127934113	-1.108073096786
0	25418	1355.577886222844	-3.441089343326
0	25439	1356.242083881021	2.253420680984
0	25603	1363.191028891191	-2.624855407583
0	25652	1367.010242179552	-0.713470965969
0	25763	1371.36193670571	-3.677989125864
0	25807	1374.377984375082	5.816854782643
0	25841	1376.334222992974	-3.59592723074
0	25882	1380.550441888491	-7.464527875288
0	25930	1389.420839628082	0.381284570156
0	25966	1390.833779266717	-1.594017381777
0	26159	1397.481380840434	2.684672659926
0	26173	1397.764199084825	2.030480998696
0	26192	1398.411758035109	-2.548897852394
0	26219	1399.349486633571	9.299406426546
0	26310	1401.622819940752	5.187454874487
0	26432	1404.368704421514	3.245094521283
0	26471	1405.51786010602	2.017787311976
0	26504	1406.761075651188	2.584026735349
0	26585	1410.345798988953	2.669752171261
0	26605	1411.365132377854	0.240504043389
0	26620	1414.076261465778	-0.030608301062
0	26676	1416.143159610138	-4.922533942227
0	26701	1418.978116362284	4.293400941586
0	26723	1421.164112774279	-5.851476626016
0	26832	1428.949493814315	0.758206854499
0	26855	1430.006024408029	-0.356109646089
0	26925	1431.950512338003	0.821815473162
0	26962	1433.706724159327	1.812492075143
0	26993	1435.357578522832	-2.345403345894
0	27121	1440.680107430532	-1.388627199797
0	27281	1447.16505648026	4.186362846955
0	27325	1449.599719875816	-2.664410060771
0	27453	1455.156825482873	2.841669548853
0	27531	1457.512601565938	3.942283124386
0	27892	1466.328999251075	7.85470413869
0	27919	1467.137917307418	6.303293140601
0	27944	1467.881617698268	3.770719682446
0	27948	1467.926953322576	-1.732413444809
0	27955	1467.980516627889	10.383276657593
0	28039	1471.358058705692	10.9091855168
0	28057	1471.906131543554	-3.144336774676
0	28081	1472.741962169969	19.708443132272
0	28098	1473.289857128686	2.285036514622
0	28126	1473.770893202472	15.885511442914
0	28185	1476.884798639465	-2.935396965258
0	28304	1482.600629777957	-0.364803135286
0	28336	1484.624171905879	-2.601691038501
0	28365	1485.881690466852	30.597783979434
0	28412	1489.528777360081	-9.213906786984
0	28432	1491.509770716713	2.413239141743
0	28544	1499.128866238587	-4.262073278927
0	28602	1504.792256298748	-1.529765315256
0	28668	1508.301019790974	-0.818164188876
0	28702	1509.431711427034	-5.979204663117
0	28720	1510.146398826208	3.386943015824
0	28798	1515.833217414218	-1.023951303229
0	28817	1517.33894577715	-3.067748615314
0	28928	1522.959669636105	-5.350363879417
0	28962	1524.820840460283	4.336571525213
0	29000	1529.295431452745	0.047265038272
0	29100	1533.983215152041	-6.901803348054
0	29142	1536.364965706953	3.66163285055
0	29237	1543.059327062562	0.666403064799
0	29376	1547.415995255083	0.46109275177
0	29621	1553.986625976955	-4.16787350647
0	29635	1554.291913334462	4.093390865423
0	29661	1554.939156634147	3.67487977318
0	29771	1558.794225450773	6.64857737897
0	29790	1560.228223844227	-0.870364197339
0	29891	1566.267451889891	25.144303206938
0	29927	1567.465679364373	1.226478630542
0	30064	1573.641327142481	29.886182307366
0	30074	1573.899728028628	-3.277844607474
0	30108	1575.592091186581	10.738223999634
0	30114	1575.692562367284	26.731187634168
0	30149	1577.368954125439	5.854704763814
0	30166	1578.348355688749	-2.354079092533
0	30207	1581.601449690453	-0.099839481736
0	30310	1584.527775452779	2.118142129897
0	30342	1585.763189162323	0.252823888372
0	30381	1587.475013147172	-10.855235911183
0	30437	1599.96459138592	1.361559629545
0	30472	1602.124802452104	0.056769441652
0	30505	1603.723112177361	-0.391362405276
0	30571	1605.903836123315	0.344290552627
0	30596	1606.453754507186	0.752082836807
0	30652	1609.336823668791	-3.655479258251
0	30715	1614.159578627428	0.095596573145
0	30887	1618.091473657974	1.9646133579
0	30912	1618.814702534113	-1.195938772875
0	30926	1619.079313126931	4.931863635832
0	31024	1623.79797185655	-0.794480894226
0	31120	1628.2026014563	-0.957775035734
0	31133	1629.221793178915	4.559604583902
0	31181	1630.729878709173	1.131069528825
0	31190	1631.147688231487	-1.166751399315
0	31276	1634.350161853779	1.718706513334
0	31317	1636.215661384533	2.278207590017
0	31330	1637.062283484369	-4.480249905651
0	31469	1645.150373019513	0.157568963691
0	31480	1645.599988947262	-1.36420190234
0	31579	1649.005677843639	0.020110272676
0	31586	1649.218974989407	0.343438632805
0	31605	1649.756983102738	0.095261467169
0	31682	1653.250946671735	-1.721538060451
0	31840	1659.241258492752	-4.767090104598
0	31902	1665.029718788747	-1.989135604567
0	31942	1667.509608153992	0.403344922191
0	31979	1669.273981067559	0.925570638593
0	31982	1669.495652738443	-1.088409900118
0	32005	1672.572898657251	-2.884274949846
0	32035	1677.630010633491	-5.79573229312
0	32134	1687.787813060146	0.489329233458
0	32173	1690.675225097825	-2.393371258468
0	32271	1694.698458419862	-5.168817882341
0	32340	1698.618556614147	8.655423755166
0	32507	1706.650455846382	2.699933215534
0	32649	1710.787828189252	3.9448018623
0	32672	1711.332032446943	5.567915728399
0	32676	1711.387770345134	-1.341214137868
0	32709	1713.037921236803	4.987833461131
0	32794	1716.948292939413	-1.410365052286
0	32867	1720.088913193687	1.229507867267
0	32884	1721.075015225679	-0.017701141432
0	32896	1721.270186977192	0.110820476774
0	32966	1723.833868044484	1.440222581829
0	32995	1725.978582817673	-2.603860152381
0	33052	1730.550080429746	-3.378900501399
0	33097	1734.754457484263	-1.557421241494
0	33165	1738.459559172698	1.05742064762
0	33208	1740.961023347736	0.059538664171
0	33214	1741.356618449672	-0.2875603498
0	33243	1743.164393752373	-1.819584013683
0	33276	1746.009677742966	-4.714221495865
0	33336	1751.073396607782	-4.506936785252
0	33408	1757.54678734704	-3.102874294519
0	33420	1758.356992636545	2.187206890553
0	33680	1764.954716864415	1.360550150644
0	33690	1765.036300347022	2.435026504132
0	33782	1768.514175254217	0.918929301322
0	33808	1769.296184568897	7.964604865227
0	33860	1770.968651692832	9.143702061266
0	33868	1771.391209475523	-0.913117916084
0	33916	1773.51326654663	-1.042777055878
0	33931	1774.028791565037	4.594815927295
0	33951	1774.5492282618	13.653962454852
0	34013	1776.777519412173	4.229224149222
0	34033	1777.378975885794	0.392143179671
0	34096	1779.177875080157	1.441103132052
0	34107	1779.311012594482	-4.763204692793
0	34155	1781.060746208281	2.29586827589
0	34314	1788.206272732128	3.95611629191
0	34368	1790.299988233954	1.940590203218
0	34384	1790.945955732863	0.64145769898
0	34392	1791.078355076591	-2.075799710405
0	34422	1794.48847087806	0.203602338002
0	34519	1799.039596805359	0.556394871889
0	34532	1799.440704327084	-6.800113264338
0	34582	1807.757950424829	-3.918965258165
0	34629	1810.40084657431	2.942464332221
0	34769	1816.074349886221	2.23051300028
0	34834	1818.993345287382	-1.921740079004
0	34882	1821.817979738927	3.937294752788
0	34897	1823.113428899481	-3.632531110882
0	34994	1828.495335467301	1.236501349072
0	35007	1828.917773904643	-2.175135092695
0	35119	1834.125629845271	-1.510231401118
0	35138	1838.077580919326	-7.812359935436
0	35291	1853.092818647098	3.975551243812
0	35294	1853.798621224572	-2.665255349386
0	35381	1857.752723612366	0.455983058853
0	35426	1859.464825764883	-0.556584767818
0	35455	1860.293046941732	-1.350705911778
0	35539	1863.219102573399	0.822483270371
0	35626	1866.819462425818	-1.366085604946
0	35674	1868.592442812182	2.237384093848
0	35687	1868.755498440094	-3.591760578854
0	35716	1870.311712739695	1.711228342075
0	35795	1874.186863238603	-1.180974387154
0	35890	1877.599743389123	-2.97237334303
0	35900	1878.139669038313	2.293584290303
0	35934	1880.887901381037	-13.394695530173
0	35990	1896.27768181112	0.082956138876
0	35999	1896.494623850308	-4.699166891985
0	36043	1901.663485963076	-0.742739243898
0	36116	1904.819777813937	1.202674527328
0	36167	1906.825423021771	-0.179143387308
0	36250	1912.067732044665	-2.956197095657
0	36297	1916.063771304614	-0.439898805206
0	36373	1919.576726139995	0.902551269287
0	36508	1923.529898439711	-3.226650827685
0	36534	1925.473386740909	4.249987688144
0	36561	1927.815538500463	-2.911690320897
0	36618	1931.526320165615	-2.594451190163
0	36668	1934.53375370266	-2.055077057711
0	36757	1940.901989063637	1.780138580952
0	36799	1942.679346234243	0.730797669041
0	36802	1942.952720328926	-1.693849360469
0	36876	1946.914904514528	-0.170810903713
0	36907	1949.264230642681	-2.197040949625
0	36959	1953.671264560948	-1.64334885207
0	36977	1954.695425748333	1.844544305038
0	37004	1956.0377682014	-2.457637332841
0	37159	1963.161143381296	1.878269089829
0	37224	1964.70413389105	-0.563418165107
0	37274	1966.65896483433	8.042341524289
0	37323	1967.934189327038	5.273543275001
0	37332	1968.081281256721	-3.107784530389
0	37386	1970.357004053409	3.031396549995
0	37410	1971.643142727033	-1.613804546373
0	37461	1974.737984078574	-6.743541084198
0	37522	1981.861487256536	-1.498613711565
0	37759	1988.845463420678	5.466706822313
0	37807	1990.582651482023	4.592840580052
0	37821	1990.899908375153	3.166081079655
0	37877	1992.214951639171	-2.322051902657
0	37886	1992.378790683234	1.269116035242
0	37908	1993.266937172389	2.672260962573
0	38036	1997.909400537424	2.304316963701
0	38065	1998.941230566995	-5.351007638311
0	38213	2006.526447139239	-1.913922114596
0	38240	2007.66181282992	3.212330728441
0	38378	2015.398208964525	10.100949200816
0	38388	2016.13518078655	1.060871827993
0	38393	2016.948032780353	-0.596747497576
0	38418	2019.264557393533	-1.927512932234
0	38445	2021.72280656786	-4.815908743207
0	38579	2028.010424572313	-1.791774359642
0	38650	2030.88133894407	-0.985745416445
0	38653	2031.153688375846	4.558887660486
0	38697	2033.497137162696	-1.520751815331
0	38781	2036.107299965242	0.71752729283
0	38828	2037.632141562853	0.898250484322
0	38911	2040.175919814755	0.684808184427
0	38927	2040.45689414334	3.643003110125
0	38973	2043.00536776959	9.845435650159
0	39023	2044.939533292412	-0.065985861474
0	39088	2046.899217611907	1.031511124782
0	39154	2049.138743952256	-0.173095109044
0	39188	2051.475166680169	7.296181940676
0	39207	2052.133086777519	-5.394270404525
0	39262	2059.805331085345	-0.742215995234
0	39316	2063.059482568259	0.617819589186
0	39330	2064.05436352406	-0.229623089672
0	39346	2064.958426825016	-3.434572368597
0	39401	2069.127691576864	-2.179008518976
0	39585	2076.224669143719	-1.22049847666
0	39595	2077.502777961902	6.022422852985
0	39665	2081.500417005582	0.732885875768
0	39739	2083.787291387942	0.26529544082
0	39882	2090.02064908632	1.859815025169
0	39949	2093.317993475621	5.468074390035
0	40054	2096.244888969555	0.082724053749
0	40097	2097.445767605369	3.111634822225
0	40116	2097.968787338019	15.388557356367
0	40126	2098.440938233803	6.289665707757
0	40129	2098.494158760426	-1.094159384028
0	40176	2102.090352962113	-1.300596043803
0	40270	2107.864452385267	-0.409424940603
0	40292	2108.773328262174	2.943091685941
0	40308	2109.027151264135	0.228999305585
0	40347	2109.848740009959	0.358352470636
0	40470	2112.944263797778	1.302197308602
0	40574	2117.333895340607	7.246598822294
0	40633	2119.080445876392	1.770531908931
0	40660	2120.830778251787	0.827130476225
0	40672	2121.176951109092	0.295115334171
0	40700	2122.467800679594	-0.281395667572
0	40730	2124.256868556898	-1.575264139345
0	40774	2126.237714453751	-5.45292838523
0	40831	2132.635630581772	-1.960360872557
0	40887	2135.040066394531	-4.333804090442
0	40912	2141.125157336574	-11.630275226385
0	41059	2156.983680839654	4.013034357115
0	41104	2160.433173505604	-1.410986901325
0	41210	2165.362230757968	6.09330479887
0	41215	2165.44364589172	0.712260193998
0	41278	2167.499997493671	-3.757279413169
0	41342	2169.725759066857	2.929018494719
0	41425	2173.597722639221	-5.679290926341
0	41428	2174.1185931759	10.882783928791
0	41471	2179.722135418494	0.430506551625
0	41480	2180.285351389571	-4.631659226763