version 2
run General-0-20150910-15:44:54-14744
attr configname General
attr datetime 20150910-15:44:54
attr experiment General
attr inifile omnetpp.ini
attr iterationvars ""
attr iterationvars2 $repetition=0
attr measurement ""
attr network CloudDataCenterTS
attr processid 14744
attr repetition 0
attr replication #0
attr resultdir results
attr runnumber 0
attr seedset 0

vector 0  CloudDataCenterTS.sink  responseTime_0  ETV
vector 1  CloudDataCenterTS.sink  delayTime_0  ETV
vector 2  CloudDataCenterTS.sink  queuingTime_0  ETV
vector 3  CloudDataCenterTS.sink  serviceTime_0  ETV
vector 8  CloudDataCenterTS.sink  ""  ETV
vector 4  CloudDataCenterTS.sink  responseTime_1  ETV
vector 5  CloudDataCenterTS.sink  delayTime_1  ETV
vector 6  CloudDataCenterTS.sink  queuingTime_1  ETV
vector 7  CloudDataCenterTS.sink  serviceTime_1  ETV
0	38	0.89601873317	0.89601873317
0	71	2.558570649468	0.648470649468
0	96	3.337242291322	0.472092291322
0	154	5.629249318663	0.853999318663
0	210	7.037076361741	1.306776361741
0	217	7.156584713837	3.336384713837
0	240	7.717413938578	0.077013938578
0	286	8.894199439408	2.208849439408
0	397	11.50554182133	1.95505182133
0	417	11.80450839516	1.29900839516
0	429	12.052502090198	3.457062090198
0	434	12.25285791182	0.79225791182
0	473	13.397729892051	0.982129892051
0	488	14.089300773809	0.718600773809
0	507	14.838582318645	0.512882318645
0	528	15.797121544004	0.516321544004
0	541	16.443251043173	0.207451043173
0	572	18.046208751598	0.855308751598
0	652	20.132017645107	1.031017645107
0	676	20.869144262174	2.723244262174
0	699	21.27255905867	0.26145905867
0	743	22.697993672094	2.641993672094
0	763	23.107415343598	0.186215343598
0	772	23.385003134873	1.418903134873
0	808	24.496479922347	0.620279922347
0	909	27.161712575808	1.375412575808
0	912	27.182537529534	0.441137529534
0	965	28.506851923423	0.810451923423
0	985	29.007057551821	0.355557551821
0	997	29.481349623693	4.650049623693
0	1026	30.060227032199	0.453727032199
0	1147	33.828190019377	2.311590019377
0	1189	35.002193130909	2.530493130909
0	1196	35.114995066259	1.68829506626
0	1200	35.312388198659	4.750788198659
0	1212	35.435263087438	0.098463087438
0	1257	37.00905597769	0.71715597769
0	1318	38.572654077003	0.370654077003
0	1321	38.61357750558	4.23177750558
0	1324	38.681181177854	1.434281177854
0	1374	40.724437222039	0.612337222039
0	1395	41.267653319592	2.110653319592
0	1410	41.818484595964	0.751384595964
0	1436	42.35731431399	0.33511431399
0	1469	43.878955356747	0.901755356747
0	1495	44.339273658969	0.406973658969
0	1512	45.256698181517	0.369398181517
0	1526	46.072692060787	0.230292060787
0	1547	47.314928903433	0.517528903433
0	1572	48.081981585088	0.329481585088
0	1633	50.006163689744	1.298663689744
0	1648	50.583604442631	0.921004442631
0	1682	51.429992325688	0.812392325688
0	1718	52.421491197932	0.848791197932
0	1768	53.714547257162	1.186847257162
0	1779	53.964860092507	0.482060092507
0	1824	55.807102751671	1.369302751671
0	1847	56.475566239095	1.082666239095
0	1865	57.00980566537	0.66190566537
0	1912	58.322128321614	1.019128321614
0	1931	59.007798260594	0.749798260594
0	1968	59.789722097442	0.576622097442
0	1988	60.831604390578	0.663504390578
0	2033	62.292626948339	0.214426948339
0	2052	62.969668481108	1.846468481108
0	2091	64.411070884369	1.377770884369
0	2112	65.123633585681	1.135333585681
0	2118	65.163929318951	0.220529318951
0	2155	66.801352172585	0.902952172586
0	2175	67.248768102487	0.395268102487
0	2241	68.90880811981	1.100308119811
0	2339	70.936209915751	0.262509915751
0	2342	71.000845319155	2.237245319155
0	2375	71.900706522917	2.182106522918
0	2417	73.037960504546	0.454160504546
0	2432	73.240417115283	1.611717115283
0	2493	75.123784893888	0.629884893888
0	2532	76.469880074625	0.065880074625
0	2568	77.637477149637	0.278477149637
0	2604	78.435981240582	2.987081240582
0	2618	78.665026406996	5.126226406996
0	2651	79.385221049109	0.116121049109
0	2654	79.401104592709	1.087004592709
0	2722	82.063839035364	1.839639035364
0	2755	83.06550377964	0.93130377964
0	2769	83.209639985633	0.120339985633
0	2781	83.552155319767	2.372955319767
0	2807	84.325840505944	0.281540505944
0	2874	86.746339439038	0.791939439038
0	2935	88.210714111405	0.346214111405
0	2947	88.379343342221	3.379943342221
0	2954	88.464704536166	1.555204536166
0	3033	90.958838925326	1.184238925326
0	3049	91.542816666101	2.723216666101
0	3064	91.864980634429	0.180280634429
0	3074	92.118504754682	1.388804754682
0	3115	93.688169740987	1.048369740987
0	3140	94.368949327917	0.774149327917
0	3214	96.279400176022	1.729500176022
0	3235	96.868898807587	1.363998807587
0	3261	97.585129198818	1.125129198818
0	3292	98.395927649682	0.980927649682
0	3305	98.772253517428	0.402153517428
0	3364	100.844411095686	0.564411095686
0	3373	101.110465235615	1.785365235615
0	3445	102.698584223213	1.463584223213
0	3451	103.066489399411	0.876489399411
0	3498	104.288868777222	1.143868777222
0	3526	105.217298519283	1.117298519283
0	3536	105.688061434289	0.633061434289
0	3556	106.292345870676	0.282345870676
0	3598	107.79885228778	0.83285228778
0	3633	108.487836558473	0.566836558473
0	3651	109.110807314536	0.234807314536
0	3703	111.031730840482	0.245730840482
0	3721	111.454559767978	1.623559767978
0	3744	112.138609021709	0.397609021709
0	3783	113.408551457555	0.712551457555
0	3806	113.910088734479	0.259088734479
0	3856	115.860609636131	0.299609636131
0	3860	115.906532102315	1.300532102315
0	3884	116.642773761221	0.126773761221
0	3936	118.289356425876	0.818356425876
0	3950	118.510281364766	0.084281364766
0	3987	119.62255978445	0.24155978445
0	4050	121.342910738677	1.006910738677
0	4116	122.90752578583	1.61652578583
0	4141	123.392265524979	1.146265524979
0	4184	124.35071937589	1.14971937589
0	4252	125.918798980696	0.807798980696
0	4270	126.39657329677	2.24057329677
0	4301	127.319365689061	1.252365689061
0	4324	127.893729165939	0.871729165939
0	4377	129.46881036335	1.49181036335
0	4384	129.542643110744	0.610643110745
0	4450	131.753334263069	1.866334263069
0	4488	132.453048228428	0.656048228428
0	4515	133.352885471992	0.600885471992
0	4545	134.015593307665	0.308593307665
0	4563	134.464720795609	3.622720795609
0	4725	138.522005839884	0.995005839885
0	4747	138.834257124139	0.352257124139
0	4763	139.116195309729	4.454195309729
0	4768	139.210706177956	2.638706177956
0	4777	139.449436427863	3.832436427864
0	4785	139.739555469799	0.302555469799
0	4810	140.697678104591	0.305678104591
0	4846	142.066470868023	0.719470868023
0	4859	142.600077122207	0.298077122207
0	4887	143.591350760929	0.334350760929
0	4926	145.258026177835	1.046026177835
0	4941	145.569489682866	0.401489682866
0	4976	146.437872022841	0.314872022841
0	5008	147.735255188652	0.657255188652
0	5044	149.012411861976	0.979411861976
0	5057	149.350306268202	0.362306268202
0	5079	150.413633530742	0.470633530742
0	5101	151.183624993276	0.285624993276
0	5161	153.07405600732	1.22105600732
0	5171	153.350635851462	0.542635851462
0	5222	155.10638590111	0.38838590111
0	5253	156.031194009413	0.358194009413
0	5259	156.062356913307	2.299356913307
0	5292	157.268487932291	0.640487932291
0	5314	158.226266371478	0.643266371478
0	5331	158.904624095435	0.366624095435
0	5390	160.748735852253	1.255735852253
0	5404	161.487306452681	1.039306452681
0	5424	162.269221930348	0.866221930348
0	5461	163.582355542105	1.224355542105
0	5464	163.651735767685	0.338735767685
0	5488	164.828241263947	0.560241263947
0	5515	165.972475762806	0.748475762806
0	5548	166.820614728482	0.641614728482
0	5572	168.026284682393	0.892284682393
0	5595	168.412153180101	0.323153180101
0	5644	170.097751683083	1.053751683083
0	5681	171.286797258232	1.287797258232
0	5733	173.014196504512	1.105196504512
0	5791	174.7555924332	1.8915924332
0	5888	176.788554219847	5.834554219847
0	5893	176.847797948726	3.028797948726
0	5920	177.611295160277	1.882295160277
0	5936	177.870502730694	3.096502730694
0	5960	178.565449932517	1.881449932517
0	6024	179.991934810069	2.352934810069
0	6030	180.304849858729	0.755849858729
0	6045	180.694638774438	2.100638774438
0	6059	181.072420913217	0.568420913217
0	6108	182.973298925605	1.514298925605
0	6162	184.479377088559	0.154377088559
0	6195	185.293090665142	2.879090665142
0	6215	185.912410417214	2.543410417214
0	6218	186.14685638128	0.86685638128
0	6242	187.146416641126	0.911416641126
0	6254	187.304456241712	0.114456241712
0	6285	188.406652000774	0.261652000774
0	6328	190.27708716556	1.17708716556
0	6340	190.919658422484	0.864658422484
0	6387	192.465572892401	0.500572892401
0	6515	196.163573844307	0.378573844307
0	6526	196.337330403322	3.417330403322
0	6581	197.769163622982	6.759163622982
0	6595	198.094828593689	4.219828593689
0	6607	198.298237636336	0.603237636336
0	6634	198.853864408539	4.023864408539
0	6645	199.169162780305	2.429162780305
0	6675	199.921784826202	1.271784826202
0	6688	200.480677151175	0.875677151175
0	6714	201.018335025785	0.458335025785
0	6751	202.545766409683	1.030766409683
0	6768	202.804074467186	0.334074467186
0	6822	204.407399655442	0.981399655442
0	6883	205.700003856712	0.364003856712
0	6915	206.644208569986	2.263208569986
0	6920	206.737740385219	0.446740385219
0	6940	207.55649531152	0.31049531152
0	6962	208.497124901843	0.296124901843
0	7004	209.504219267277	0.348219267277
0	7063	211.356376365743	1.245376365743
0	7092	212.422618754827	1.356618754827
0	7098	212.736302201502	0.715302201502
0	7114	213.332763482909	0.356763482909
0	7151	214.780417647457	0.849417647457
0	7201	216.085560107039	1.199560107039
0	7209	216.189115087762	0.348115087762
0	7239	216.953192685606	0.157192685606
0	7278	218.24662499259	0.49562499259
0	7315	219.22055660834	0.51455660834
0	7341	220.121471189166	0.460471189166
0	7418	222.472966226351	1.856966226351
0	7441	222.939025695746	0.412025695746
0	7463	223.831123454083	2.260123454083
0	7466	223.849654753653	0.367654753653
0	7516	225.980964933944	0.588964933944
0	7552	226.983169311986	0.636169311986
0	7608	228.278986248746	3.841986248746
0	7623	228.566206436545	1.264206436545
0	7693	230.373202818563	0.206202818563
0	7698	230.472166936953	2.215166936953
0	7734	231.617698905113	0.495698905113
0	7739	231.815356368714	2.603356368714
0	7774	232.749514350291	0.672514350291
0	7807	233.88410907033	0.85210907033
0	7886	235.916137112074	0.974137112074
0	7897	236.196693243807	2.209693243807
0	7914	236.912654999509	1.015654999509
0	7919	237.124368719883	0.272368719883
0	7941	237.906591682491	0.099591682491
0	7987	239.877428296941	1.115428296941
0	7990	239.896160083061	0.179160083061
0	8011	240.775586779949	0.103586779949
0	8045	242.563290525841	0.936290525841
0	8078	243.694399050936	1.111399050936
0	8088	244.09523604414	0.55723604414
0	8143	245.731681084251	1.238681084251
0	8153	246.117884257833	0.669884257833
0	8184	247.314523179994	0.911523179994
0	8237	248.565075653826	0.252075653826
0	8316	250.439927272578	1.171927272578
0	8367	251.415479591996	1.192479591996
0	8377	251.770117571449	4.412117571449
0	8399	252.299169575788	1.121169575788
0	8436	253.494115056251	0.406115056251
0	8455	254.043486936065	1.910486936065
0	8500	255.309113641942	1.266113641942
0	8574	257.126757909938	1.173757909938
0	8622	258.319655871369	3.321655871369
0	8642	258.763410236118	0.900410236118
0	8653	258.943814675714	2.035814675714
0	8683	259.951290700163	0.178290700163
0	8736	262.344009599935	1.616009599935
0	8746	262.589895628168	0.905895628168
0	8766	263.169679831129	4.35167983113
0	8805	264.254358124073	0.660358124073
0	8808	264.325247258923	1.686247258923
0	8855	265.984371542798	1.435371542799
0	8875	266.49713800086	0.99313800086
0	8917	268.037962453544	0.623962453544
0	8940	268.96509442715	2.50609442715
0	8981	270.24730406234	1.87830406234
0	8993	270.365265297127	1.041265297127
0	9008	270.773494516231	0.494494516231
0	9039	272.056698451652	0.822698451653
0	9059	273.108045752085	0.919045752085
0	9075	273.377062137544	0.233062137544
0	9143	275.381340040694	1.282340040694
0	9185	276.427249405232	0.418249405232
0	9229	277.760564875461	2.706564875462
0	9232	277.766437331469	0.802437331469
0	9261	278.952990730542	1.033990730543
0	9268	279.008941745579	0.134941745579
0	9294	280.344355315545	0.515355315545
0	9330	281.653770127086	0.868770127086
0	9386	283.297560002153	0.602560002153
0	9464	285.518019296045	1.868019296045
0	9495	285.970639439944	1.365639439944
0	9531	286.786339631926	0.271339631926
0	9570	287.733240427454	0.263240427454
0	9607	289.287620272675	0.862620272675
0	9655	290.811944820973	0.476944820973
0	9684	291.970954708463	6.410954708463
0	9692	292.180097659475	10.440097659475
0	9718	292.774398203087	3.394398203087
0	9751	293.613523478629	2.323523478629
0	9760	293.848607005573	1.603607005573
0	9788	294.576127603598	0.421127603598
0	9797	295.020939149743	1.820939149743
0	9833	296.091090457167	0.026090457167
0	9844	296.361655905916	1.251655905916
0	9880	297.736373682408	0.716373682408
0	9897	298.515749500699	0.540749500699
0	9957	300.419462467881	0.533462467881
0	9977	300.875865921241	1.945865921241
0	10023	301.905209039832	0.109209039832
0	10027	302.013430640428	1.172430640428
0	10064	303.383297226075	0.632297226075
0	10089	304.140852380712	0.434852380712
0	10108	305.249341562584	0.588341562584
0	10137	306.120275480966	0.504275480966
0	10174	307.239878945534	0.668878945534
0	10189	307.929744721077	0.403744721077
0	10237	309.587891517865	1.106891517865
0	10260	310.410220415828	0.974220415828
0	10274	310.91036736888	0.51936736888
0	10297	311.616166953994	0.270166953994
0	10344	313.388071925355	1.087071925355
0	10362	314.104434595493	0.848434595493
0	10399	315.456981525583	1.245981525583
0	10404	315.656958242882	0.490958242882
0	10430	316.698319813374	0.577319813374
0	10450	317.638883505995	0.562883505995
0	10499	319.15999856102	0.17299856102
0	10514	319.68118483204	1.65018483204
0	10570	321.170518225318	1.228518225318
0	10580	321.344176214665	0.447176214665
0	10606	321.973387521893	0.121387521893
0	10628	322.922464749726	0.115464749726
0	10639	323.830322275915	0.068322275915
0	10693	326.201614434214	0.529614434214
0	10702	326.565852222477	1.848852222477
0	10725	327.147945383458	0.520945383458
0	10753	328.018475949624	0.436475949624
0	10787	329.152620407703	0.615620407703
0	10829	330.743665126109	1.251665126109
0	10836	330.846112276458	0.399112276458
0	10863	331.766982566517	0.364982566517
0	10902	332.976092281191	0.619092281191
0	10941	333.983697352237	0.671697352237
0	10984	335.099448012729	0.832448012729
0	11018	336.135362543978	0.913362543978
0	11050	336.954750961874	0.777750961874
0	11070	337.375994378637	0.243994378637
0	11092	338.194035579484	0.107035579484
0	11129	339.787598039763	0.744598039763
0	11163	340.89529309178	0.89729309178
0	11177	341.448135914093	0.495135914093
0	11229	342.996738360905	1.088738360905
0	11246	343.390554003921	0.527554003921
0	11330	346.265826323863	2.447826323863
0	11352	346.798435732946	0.115435732946
0	11383	347.710488335074	1.982488335074
0	11390	347.911642843691	3.138642843691
0	11403	348.445616539146	0.807616539146
0	11428	349.170918911265	0.577918911265
0	11476	350.806795256105	1.258795256105
0	11530	352.323840674018	0.865840674018
0	11590	353.620009882787	3.117009882787
0	11593	353.626990261922	0.258990261922
0	11630	354.810562071733	2.397562071733
0	11638	354.979895974467	0.656895974467
0	11673	355.941829295669	0.663829295669
0	11726	357.419136699425	0.231136699425
0	11739	357.892126883605	1.659126883605
0	11820	360.162908767861	2.018908767861
0	11824	360.194019275823	1.095019275823
0	11836	360.25515242879	0.20115242879
0	11875	361.564364051006	0.555364051006
0	11895	362.371964047178	0.407964047178
0	11918	363.763995313892	0.844995313892
0	11952	364.72876229562	0.85476229562
0	12005	366.146665313181	0.362665313181
0	12040	367.084745236164	2.255745236164
0	12046	367.359562179937	0.620562179937
0	12074	368.404568167328	0.710568167328
0	12119	369.662847663255	1.013847663255
0	12135	370.163323614864	0.559323614864
0	12164	371.297260926758	0.738260926758
0	12186	372.41727731091	0.90327731091
0	12204	372.807205069807	0.338205069807
0	12224	373.838083197489	0.414083197489
0	12246	375.192424278195	0.813424278195
0	12275	375.964029916437	0.630029916437
0	12297	376.497650237057	0.208650237057
0	12323	378.029393443029	0.784393443029
0	12337	378.535771626656	0.335771626656
0	12379	380.241214345646	1.086214345646
0	12396	380.625685718232	0.515685718232
0	12438	382.321353837892	1.256353837892
0	12469	383.096908308999	1.076908308999
0	12478	383.507316538296	0.532316538296
0	12513	385.013560972901	1.083560972901
0	12516	385.033258602033	0.148258602033
0	12586	387.854476780465	1.059476780465
0	12595	388.241164083934	2.401164083934
0	12632	389.231681592952	0.526681592952
0	12635	389.312933803862	1.562933803862
0	12719	391.914811034874	1.299811034874
0	12725	391.923391336716	0.353391336716
0	12730	391.961101661457	2.301101661457
0	12806	394.202662000673	0.722662000673
0	12815	394.345645431531	1.820645431531
0	12889	396.664847640014	1.274847640014
0	12899	397.156330924074	0.810330924074
0	12912	397.544539263305	0.243539263305
0	12918	397.60862092493	3.17362092493
0	12981	399.951410415788	1.695410415788
0	13013	400.668829081699	1.457829081699
0	13038	401.198913346028	1.032913346028
0	13089	402.518714432339	1.397714432339
0	13094	403.022978094348	0.946978094348
0	13179	405.328312277361	1.342312277361
0	13222	406.615344857167	1.674344857167
0	13244	407.085291880782	1.189291880782
0	13250	407.443718502525	4.412718502525
0	13294	408.671200160708	1.820200160708
0	13318	409.213185044755	0.452185044755
0	13330	409.4514025967	1.6454025967
0	13353	410.613094779876	0.897094779876
0	13417	412.386295647713	1.715295647713
0	13424	412.491162868202	0.865162868202
0	13462	413.281602878269	0.700602878269
0	13481	413.738296320768	0.202296320768
0	13532	415.629811392	0.183811392
0	13573	416.954225550442	2.463225550442
0	13599	417.776611917541	0.419611917541
0	13604	417.797148169015	1.395148169015
0	13671	419.824966942619	0.557966942619
0	13745	421.821504569407	1.599504569407
0	13758	422.073903558249	0.896903558249
0	13769	422.23742330459	3.92542330459
0	13788	422.847435517311	0.715435517311
0	13856	425.063057128514	1.021057128514
0	13874	425.476223425034	0.479223425034
0	13880	425.637373010032	2.550373010032
0	13922	427.057946624655	0.150946624655
0	13952	427.995369675748	2.043369675748
0	13966	428.72136843764	0.85936843764
0	13986	429.160762173354	0.343762173354
0	14010	430.23656032537	0.46456032537
0	14030	430.951385982458	0.224385982458
0	14062	432.268436041153	0.586436041153
0	14088	433.25682217696	0.61982217696
0	14119	434.252194597166	0.660194597166
0	14155	435.384225454249	0.837225454249
0	14211	436.926855869282	1.423855869282
0	14264	438.59736080415	1.18436080415
0	14272	438.827728193918	0.459728193918
0	14314	439.954957143017	3.496957143017
0	14321	440.113948433282	0.790948433282
0	14343	440.68566125263	0.40766125263
0	14380	441.802244234572	0.569244234572
0	14415	442.974845783458	0.786845783458
0	14456	444.626394240631	0.528394240631
0	14459	444.65570130522	1.51270130522
0	14495	445.938098607743	0.885098607743
0	14516	446.884591852432	0.876591852432
0	14531	447.291883091169	0.328883091169
0	14557	448.264802783296	0.346802783296
0	14608	449.865103563255	0.037103563255
0	14624	450.380709664685	1.507709664685
0	14673	451.868359317983	1.085359317983
0	14706	452.815421479689	1.077421479689
0	14724	453.535173099825	0.842173099825
0	14755	454.1825166284	0.5345166284
0	14791	455.153699412115	0.549699412115
0	14812	456.01947153422	0.46047153422
0	14824	456.67792238848	0.16392238848
0	14856	458.032933330694	0.563933330694
0	14919	459.70052485697	1.27652485697
0	14958	460.713154009896	1.334154009896
0	14971	461.163653099542	0.829653099542
0	14989	461.387461908128	0.098461908128
0	15048	463.405395784747	0.206395784747
0	15112	465.211255295592	2.967255295592
0	15156	466.424564557016	1.315564557016
0	15160	466.46508714204	0.40108714204
0	15178	467.214905911233	3.060905911233
0	15227	468.478702497847	1.459702497847
0	15255	469.342511587728	1.368511587728
0	15263	469.579000962604	0.650000962604
0	15306	470.825671589471	0.941671589471
0	15349	472.197284362397	0.403284362397
0	15453	475.229777582935	1.524777582935
0	15468	475.630723141468	0.970723141468
0	15478	475.873154258097	0.258154258097
0	15555	477.912148966629	0.387148966629
0	15568	478.319789120732	5.570789120732
0	15577	478.457993895637	7.618993895637
0	15586	478.522349396116	1.952349396116
0	15603	479.041843994517	0.561843994517
0	15632	479.964680806506	0.529680806506
0	15653	481.122301726176	0.732301726176
0	15678	482.119352362477	0.774352362477
0	15700	482.856161836924	0.556161836924
0	15741	484.446005277118	0.236005277118
0	15777	485.384054209232	0.219054209232
0	15787	485.561877634404	2.306877634404
0	15807	486.12654337603	0.00654337603
0	15873	488.713838416775	1.638838416775
0	15932	489.911777595301	1.881777595301
0	15960	490.557887486132	1.572887486132
0	15994	491.391156583461	0.496156583461
0	16020	491.968497825353	2.028497825353
0	16027	492.036890084695	0.186890084695
0	16083	493.729382550138	0.924382550138
0	16107	494.464777998881	0.703777998881
0	16123	495.521856836119	0.805856836119
0	16173	496.902448901595	0.276448901595
0	16187	497.30830403937	1.63730403937
0	16212	498.485001631632	0.904001631632
0	16229	498.91973757213	0.38373757213
0	16296	501.233070336981	1.742070336981
0	16337	502.206995945273	1.760995945273
0	16356	502.46375937696	1.06275937696
0	16359	502.526468224465	0.170468224465
0	16482	505.980828321828	1.714828321828
0	16518	506.716598954809	3.405598954809
0	16527	506.88938223029	0.71338223029
0	16588	508.140339110295	1.009339110295
0	16661	509.588306144818	0.547306144818
0	16679	509.953932818203	1.867932818203
0	16693	510.049577356612	0.053577356612
0	16707	510.766853354751	5.545853354751
0	16790	513.065412426467	2.114412426467
0	16888	515.427934484944	1.610934484944
0	16897	515.587491341825	0.815491341825
0	16900	515.618258441989	3.712258441989
0	16922	516.011618150357	0.284618150357
0	16927	516.134177528115	3.272177528116
0	16989	518.22904188821	0.592041888211
0	16993	518.259715966219	1.577715966219
0	17022	519.446377244931	0.854377244931
0	17078	521.163648808944	1.616648808944
0	17107	521.89451010933	1.392510109331
0	17112	522.085713634184	0.628713634184
0	17139	522.765066166441	0.353066166441
0	17159	523.675917144914	0.308917144915
0	17181	524.911615005263	0.589615005263
0	17233	526.532410303323	1.255410303323
0	17236	526.577883385049	0.345883385049
0	17286	528.551693790609	1.364693790609
0	17416	531.314105397838	3.172105397838
0	17426	531.524746336572	1.472746336572
0	17432	531.779100000568	0.772100000569
0	17451	532.06777816612	0.104778166121
0	17469	532.933598202697	3.836598202697
0	17515	534.593351529999	1.675351529999
0	17538	535.188366139869	1.315366139869
0	17541	535.210709989125	0.382709989125
0	17581	536.819688431856	1.036688431856
0	17612	537.773065520973	1.035065520973
0	17697	539.974998871725	0.371998871726
0	17709	540.480173130467	2.787173130467
0	17746	541.472913450062	2.824913450062
0	17769	541.782113623321	0.269113623321
0	17792	542.617279334182	2.059279334182
0	17829	543.703582872682	1.235582872683
0	17887	545.311646502578	1.888646502578
0	17913	545.825167222367	1.447167222367
0	17939	546.323275295288	0.990275295288
0	17973	547.342161086743	1.054161086743
0	17985	547.517232132964	0.274232132964
0	18022	548.887633208015	0.689633208015
0	18043	549.674051800267	0.521051800267
0	18107	551.56081906352	0.496819063521
0	18128	552.02039087682	1.912390876821
0	18142	552.425019494663	0.406019494663
0	18168	553.470184432059	0.496184432059
0	18179	553.95813943445	0.02913943445
0	18224	556.020012426543	0.181012426543
0	18234	556.564071976114	1.680071976114
0	18310	558.787406925073	1.993406925073
0	18347	559.853755018811	1.149755018812
0	18386	561.124201948882	0.510201948882
0	18418	562.138795369462	0.569795369463
0	18436	562.531850948612	4.782850948612
0	18491	563.711522602262	0.232522602262
0	18499	563.945827015561	1.421827015561
0	18528	564.788039019824	5.129039019824
0	18534	564.979233624079	0.545233624079
0	18556	566.05091447443	0.66191447443
0	18581	567.180226582653	0.836226582653
0	18616	568.318595218802	1.019595218802
0	18632	568.712599849376	0.458599849376
0	18692	570.408287807716	0.244287807716
0	18698	570.70126520641	1.49226520641
0	18759	572.461332292622	1.341332292622
0	18831	574.091080002031	2.016080002031
0	18875	574.931285938122	0.946285938122
0	18925	576.19078589909	0.29578589909
0	18941	576.750000291941	3.720000291941
0	19024	578.72636221839	1.87636221839
0	19037	578.871008747933	1.066008747933
0	19040	578.873589506508	3.933589506508
0	19065	579.553219610861	0.793219610861
0	19106	580.641658881886	0.926658881886
0	19224	582.940065293024	0.360065293024
0	19228	582.994731563581	1.369731563581
0	19232	583.127356928999	2.457356928999
0	19264	584.159255877343	0.624255877343
0	19301	585.162434272769	0.672434272769
0	19344	586.806908145867	0.406908145867
0	19371	587.686574850155	0.331574850155
0	19379	587.816299282703	2.371299282703
0	19396	588.709127054111	0.399127054111
0	19456	590.988839742384	0.767839742384
0	19493	592.045126267419	2.780126267419
0	19539	593.069119733509	1.893119733509
0	19566	593.539529811583	0.453529811583
0	19569	593.588577087473	1.457577087473
0	19687	596.408258005479	1.412258005479
0	19699	596.657336275253	0.706336275253
0	19733	597.419799545183	0.513799545183
0	19738	597.505477334408	3.464477334408
0	19806	599.202799923341	1.341799923341
0	19840	599.985547562258	1.169547562258
0	19843	600.00396346103	0.23296346103
0	19943	602.94750877301	1.26650877301
0	19956	603.259762593472	0.623762593472
0	19961	603.47411946325	2.74811946325
0	19975	603.686224875064	0.095224875064
0	20043	605.956970925448	0.455970925448
0	20048	606.144825729155	1.598825729155
0	20091	607.588546258781	1.132546258781
0	20103	608.034700833933	0.623700833933
0	20125	608.524840486064	0.158840486064
0	20171	609.947929946487	0.625929946487
0	20206	610.711994026444	0.434994026444
0	20230	611.512246792734	0.280246792734
0	20272	612.971914015213	0.784914015213
0	20320	613.986868500841	0.844868500841
0	20344	614.902219064556	0.805219064556
0	20377	615.668538335664	0.616538335664
0	20427	617.460255006225	1.453255006225
0	20459	618.432916198955	1.470916198955
0	20478	618.950904479576	0.078904479576
0	20496	619.505284865203	1.588284865203
0	20507	619.934208195817	0.107208195817
0	20558	621.737825531406	0.955825531406
0	20605	623.051560203469	1.314560203469
0	20657	624.451853908505	1.759853908505
0	20684	625.038808577133	1.391808577133
0	20693	625.336185580888	0.734185580888
0	20749	626.718202579806	1.161202579806
0	20782	627.501152972671	0.989152972671
0	20796	627.876924894366	0.409924894366
0	20862	629.640748838143	0.262748838143
0	20895	630.707104479748	0.374104479748
0	20928	631.425390399721	0.137390399721
0	20932	631.49853107218	3.07553107218
0	20973	633.174209151388	0.931209151388
0	20998	633.843717075525	0.645717075525
0	21039	635.396783104094	1.243783104094
0	21042	635.588750748087	0.480750748087
0	21064	637.017007100978	0.954007100978
0	21178	639.610255667601	1.637255667601
0	21202	640.275020743055	0.392020743055
0	21211	640.461833497831	3.443833497831
0	21237	641.251228404971	0.413228404971
0	21319	643.420271716652	4.492271716652
0	21340	643.78066411012	1.03266411012
0	21356	644.002374217694	2.209374217694
0	21417	645.814982277236	2.111982277236
0	21448	646.575815358316	0.962815358316
0	21492	647.890045357662	1.322045357662
0	21500	648.147954769399	3.489954769399
0	21565	649.953516815926	0.519516815926
0	21616	651.349899532042	2.870899532042
0	21669	652.640979990492	1.296979990492
0	21733	653.838835828998	0.584835828998
0	21765	654.402986037956	2.103986037956
0	21777	654.602213975824	4.213213975824
0	21789	654.874734108979	0.665734108979
0	21867	656.625148763895	9.102148763895
0	21873	656.731564226863	1.567564226863
0	21920	657.549192098947	0.475192098947
0	21950	658.556885261333	2.437885261333
0	21957	658.706957055967	0.677957055967
0	21982	659.329632440164	0.345632440164
0	22037	661.34078621844	1.40178621844
0	22059	662.007700526975	1.113700526975
0	22063	662.083005947199	0.234005947199
0	22094	663.434328065894	0.630328065894
0	22126	664.616727309419	0.857727309419
0	22178	666.07733464672	0.40833464672
0	22228	667.57431111758	2.86031111758
0	22298	669.01201943251	1.43201943251
0	22307	669.301403885159	2.677403885159
0	22338	669.941600657912	1.406600657912
0	22372	670.771477726263	1.281477726263
0	22383	671.077509127101	0.632509127101
0	22414	671.636661540181	0.236661540181
0	22440	672.572180108438	0.217180108438
0	22507	674.377207968072	1.067207968072
0	22511	674.485837885767	0.220837885767
0	22559	676.30644988975	1.08644988975
0	22604	677.687477390188	1.512477390188
0	22614	678.060532451107	0.930532451107
0	22670	679.63470498165	0.59470498165
0	22762	682.009898021847	1.059898021847
0	22800	683.041571832786	1.136571832786
0	22824	683.690566644787	0.830566644787
0	22837	683.911748817295	5.826748817295
0	22865	684.504304399681	4.509304399681
0	22873	684.726902342849	0.911902342849
0	22913	685.845653997027	1.075653997027
0	22922	686.142499603725	0.417499603725
0	22968	687.49924323706	0.81824323706
0	23017	688.871262878394	0.280262878394
0	23109	691.077577148145	3.441577148145
0	23145	692.018715313386	2.472715313386
0	23148	692.076314649853	1.575314649853
0	23160	692.510923785608	1.054923785608
0	23194	693.58164932976	0.21564932976
0	23204	693.860866760958	1.449866760958
0	23240	695.083728319676	0.762728319676
0	23259	695.569761755633	0.293761755633
0	23326	697.830538835468	1.599538835468
0	23332	698.084786964887	0.898786964887
0	23367	699.224414822665	1.083414822665
0	23413	700.824638779483	1.728638779483
0	23435	701.171650424399	1.120650424399
0	23450	701.657847837089	0.651847837089
0	23500	703.294681949889	0.378681949889
0	23503	703.309895592903	1.348895592903
0	23568	705.564078866895	0.738078866895
0	23580	705.83652395635	1.96552395635
0	23633	707.46228308514	1.68028308514
0	23665	708.546910012908	0.854910012908
0	23715	710.451451963607	0.849451963607
0	23745	711.198143197251	2.551143197251
0	23750	711.257135987296	0.700135987296
0	23801	712.449535126206	0.937535126206