file 3925241 1442429163                                         
version 2
run General-2-20150916-20:45:54-25759
attr configname General
attr datetime 20150916-20:45:54
attr experiment General
attr inifile omnetpp.ini
attr iterationvars $0=4715
attr iterationvars2 "$0=4715, $repetition=0"
attr measurement $0=4715
attr network CloudDataCenterTS
attr processid 25759
attr repetition 0
attr replication #0
attr resultdir results
attr runnumber 2
attr seedset 2

vector 4  CloudDataCenterTS.sink  responseTime_1  ETV
vector 5  CloudDataCenterTS.sink  delayTime_1  ETV
vector 6  CloudDataCenterTS.sink  queuingTime_1  ETV
vector 7  CloudDataCenterTS.sink  serviceTime_1  ETV
vector 0  CloudDataCenterTS.sink  responseTime_0  ETV
vector 1  CloudDataCenterTS.sink  delayTime_0  ETV
vector 2  CloudDataCenterTS.sink  queuingTime_0  ETV
vector 3  CloudDataCenterTS.sink  serviceTime_0  ETV
0	818 562728 42 399373 0.771929469692 10799.05031950704 13568 0.003078436613 22.596041414856 13802.835948459 32515.690415858
1	563546 493621 42 399373 0.771929469692 10799.05031950704 13568 7.36997e-06 1.07223 1351.9761176563 272.2783500075
2	1057167 422463 42 399373 0.771929469692 10799.05031950704 13568 0 18.153361842397 2268.5223487305 5303.3932296572
3	1479630 482828 42 399373 0.771929469692 10799.05031950704 13568 2.80769e-06 7.31253 9448.5638288626 13049.160324859
4	1962458 562653 32 399391 0.547803940881 10799.602586575556 13569 0.001405556571 16.292067755948 14014.56608574 32038.574156903
5	2525111 493807 32 399391 0.547803940881 10799.602586575556 13569 7.2456e-06 1.01784 1348.6146799865 269.57950284829
6	3018918 423806 32 399391 0.547803940881 10799.602586575556 13569 0 10.320562930881 2330.5628999576 4199.7297460047
7	3442724 482517 32 399391 0.547803940881 10799.602586575556 13569 2.28038e-05 7.24546 9451.1235311756 12975.258390534
