file 1116331 1442742369                                         
version 2
run General-4-20150920-11:46:07-10977
attr configname General
attr datetime 20150920-11:46:07
attr experiment General
attr inifile omnetpp.ini
attr iterationvars $0=94215
attr iterationvars2 "$0=94215, $repetition=0"
attr measurement $0=94215
attr network CloudDataCenterTS
attr processid 10977
attr repetition 0
attr replication #0
attr resultdir results
attr runnumber 4
attr seedset 4

vector 0  CloudDataCenterTS.sink  responseTime_0  ETV
vector 1  CloudDataCenterTS.sink  delayTime_0  ETV
vector 2  CloudDataCenterTS.sink  queuingTime_0  ETV
vector 3  CloudDataCenterTS.sink  serviceTime_0  ETV
vector 4  CloudDataCenterTS.sink  responseTime_1  ETV
vector 5  CloudDataCenterTS.sink  delayTime_1  ETV
vector 6  CloudDataCenterTS.sink  queuingTime_1  ETV
vector 7  CloudDataCenterTS.sink  serviceTime_1  ETV
0	821 149383 60 201859 2.550679231794 10795.107863118753 3581 -20.187961413059 33.678952704248 1140.4019533799 68077.787616804
1	150204 147536 60 201859 2.550679231794 10795.107863118753 3581 4.3473617e-05 6.139489274501 2172.436721917 2653.8492768663
2	297740 113750 60 201859 2.550679231794 10795.107863118753 3581 0 20.478774610878 1951.7168975426 9505.1947378336
3	411490 147548 60 201859 2.550679231794 10795.107863118753 3581 0.001383579098 22.983669969628 7725.4715302427 33528.451464329
4	559038 149513 63 201901 3.01737346447 10798.215637000246 3582 -21.635549615711 33.0784268069 377.95834329267 58333.156634159
5	708551 147628 63 201901 3.01737346447 10798.215637000246 3582 4.7246e-05 4.371398856785 2187.6244485891 2622.2944446445
6	856179 112534 63 201901 3.01737346447 10798.215637000246 3582 0 21.247188956021 1511.0871402982 6611.7203707466
7	968713 147618 63 201901 3.01737346447 10798.215637000246 3582 0.000413951459 20.090773806903 7411.7799525982 30685.030906941
