version 2
run General-3-20150921-14:48:25-7237
attr configname General
attr datetime 20150921-14:48:25
attr experiment General
attr inifile omnetpp.ini
attr iterationvars $0=74063
attr iterationvars2 "$0=74063, $repetition=0"
attr measurement $0=74063
attr network CloudDataCenterTS
attr processid 7237
attr repetition 0
attr replication #0
attr resultdir results
attr runnumber 3
attr seedset 3

vector 0  CloudDataCenterTS.sink  responseTime_0  ETV
vector 1  CloudDataCenterTS.sink  delayTime_0  ETV
vector 2  CloudDataCenterTS.sink  queuingTime_0  ETV
vector 3  CloudDataCenterTS.sink  serviceTime_0  ETV
0	29	1.688218945863	0.163227542119
0	56	3.144937787988	-0.902022082861
0	62	3.517542548033	1.161650325966
0	74	4.656230977262	-0.325072264184
0	94	5.730747624909	-2.551819893695
0	112	6.999990622002	1.700844155333
0	145	9.707393398397	0.162917464387
0	165	10.250731495198	-0.749197324321
0	172	10.391229246579	0.331451684537
0	175	10.396237384559	1.52916815253
0	215	12.593896510565	2.600435768441
0	260	14.359038942046	-1.846436225092
0	269	14.864355288323	2.25568757171
0	272	15.05721821353	2.312442728619
0	285	16.983001007157	-0.675076027384
0	303	18.71818440491	-0.304775006222
0	323	20.203944456557	0.033280113424
0	345	21.007549466351	-0.581599801316
0	352	21.732741679148	1.422820623565
0	368	22.25885860514	0.187700189268
0	380	22.728485423043	-0.07643012752
0	394	23.005761371354	0.070095596229
0	403	23.365687618778	-0.435221001506
0	412	23.828246526713	1.571505157014
0	435	24.811068914704	0.783862555553
0	453	26.466770082352	-0.150559795948
0	469	27.303144898895	0.147843551459
0	498	28.778348380258	1.011862763558
0	514	29.101114081554	0.176923784643
0	528	29.573241737889	-0.317629782401
0	544	30.316714199783	-0.334142334681
0	548	30.441431299477	1.685924461982
0	572	31.3960652019	3.723684688397
0	583	31.601059872157	2.552643755661
0	614	32.57847466676	0.925462630307
0	635	33.432577785573	-0.080520015342
0	643	33.617208830418	1.056979473087
0	680	34.972720317531	0.978064307242
0	685	35.051389084618	0.433232659768
0	691	35.125771913795	0.878866595875
0	698	35.261847616761	-0.317573785523
0	712	36.446517171221	4.890376732108
0	715	36.672570906695	-0.262822295534
0	736	37.733866737813	0.372162853031
0	755	38.929135142332	1.579729378137
0	758	38.951179006787	-0.04836190535
0	819	42.887259686293	-1.159028676427
0	823	43.005265615997	0.789495168751
0	834	43.800488097202	0.964020479419
0	837	43.985673866596	1.200800482594
0	862	45.077109255241	0.390979253761
0	865	45.149941832225	-0.126269825182
0	873	45.51292861644	0.94204970374
0	883	45.753628807139	-2.120534309019
0	903	47.348490447431	1.727847936049
0	918	48.874551540208	-0.060882150308
0	928	49.426381427768	-1.311968733004
0	960	52.20317043784	-1.488136835496
0	979	53.380054545702	1.975021329528
0	989	54.099181711541	-1.976455897603
0	1025	57.064576621914	-0.803873529369
0	1034	57.399681016532	1.188385089587
0	1047	58.057078441341	1.9729801566
0	1053	58.122922434504	-0.65196077131
0	1060	58.5898689748	0.539303428807
0	1072	59.191852974401	-1.172197196584
0	1138	62.600042676809	1.810235655448
0	1156	63.327355864014	2.820798337422
0	1171	63.863856137928	1.292110020563
0	1175	63.928855173394	2.575317212365
0	1208	65.504920030107	3.697472643149
0	1213	65.669881744844	0.565417794148
0	1245	68.444872662076	-0.11829721354
0	1291	70.083000051976	-1.192087647001
0	1300	70.225814773851	9.129695688079
0	1307	70.547545005839	1.189006763323
0	1310	70.637252668145	1.756364672583
0	1313	70.798896281037	6.227793955046
0	1349	72.799900707176	0.125203409753
0	1373	74.051214950154	0.406466257009
0	1376	74.190439313845	-2.267230901192
0	1379	74.805746239874	3.192493582731
0	1397	77.243262675804	0.333512742333
0	1404	77.495258105365	-0.253654420471
0	1419	78.449660075297	0.129132605394
0	1426	78.729005616636	-0.562910032057
0	1465	80.572946960845	0.845759194222
0	1468	80.579031275082	0.250186156748
0	1488	81.627064883275	0.53872013961
0	1500	81.867277531249	0.056636000402
0	1533	83.28515412193	3.054001392241
0	1537	83.346923877191	0.234756816567
0	1544	83.61599805631	-1.537939597737
0	1589	86.242224786401	-1.006224612515
0	1592	86.49199232697	3.72824234928
0	1595	86.910495978485	1.664469771071
0	1631	88.791696863571	0.755126911799
0	1634	88.821988994215	0.880470421708
0	1655	89.661152502453	1.233671460332
0	1664	90.131801574702	-4.384530935362
0	1690	96.351135319319	-0.28035675152
0	1712	97.362997463803	0.40762763364
0	1721	97.857208132516	1.066123044047
0	1752	99.179819140702	-0.41867230479
0	1759	99.453835996705	0.325927578292
0	1762	99.56622178171	0.91531595362
0	1780	100.814567925066	-2.42878567535
0	1803	104.117825276889	0.330602511811
0	1809	104.430008222681	-2.742900372074
0	1826	105.735191781096	1.901247719054
0	1839	107.617851728077	0.208846755073
0	1852	108.104481751965	-0.953812976325
0	1884	109.980986857804	-0.112406890878
0	1904	110.430980454019	0.710167735742
0	1917	110.956510310866	0.846290638806
0	1920	110.961184124821	0.290626843181
0	1931	111.27192658033	3.461294068859
0	1971	112.621155004066	0.725881485254
0	1984	113.038604609892	0.490330174317
0	2041	115.710872377227	3.786477734235
0	2049	115.819259411748	2.496153703161
0	2054	115.865609480396	-1.848715827385
0	2060	116.623514508972	5.571665836111
0	2084	118.967386049882	0.396414005314
0	2094	120.155859034423	-0.212567780885
0	2127	122.234549463483	-0.039866234109
0	2149	122.856675181652	0.370287367984
0	2181	124.038650025869	0.119276180373
0	2190	124.252683504211	2.705449854678
0	2203	124.825879768778	-2.256524889201
0	2217	126.269816151591	3.561254996005
0	2225	127.180577807848	-0.165983736861
0	2265	128.609467409007	1.210640738394
0	2270	128.82413982467	-2.28301481334
0	2280	129.672187186782	1.937057701214
0	2297	131.756561021067	-1.264288701934
0	2303	131.818429292788	0.533103692978
0	2316	133.788331747225	-0.256302630762
0	2330	135.017060298753	-0.044894070553
0	2356	137.50750217747	-0.167845223495
0	2359	137.582633070297	0.477822686786
0	2380	138.75134731143	-0.035950509388
0	2418	140.812272502231	-1.3664298139
0	2421	140.899055225258	2.244593834041
0	2435	141.843287021649	1.777644090804
0	2449	143.065461042549	0.088006990783
0	2467	143.869824520941	0.232339563324
0	2473	144.069744318512	-1.422479755897
0	2545	148.026893178354	0.586283141124
0	2556	148.332085107033	2.156294294619
0	2573	148.981700676326	2.990722855774
0	2577	149.176924451068	2.452993487217
0	2586	149.627435007536	-0.654561016968
0	2590	149.637456849775	2.69507924162
0	2604	150.45405961571	3.277105891117
0	2633	151.196240239211	0.740659066925
0	2636	151.231991814923	0.136874133964
0	2656	152.340092252183	-0.787644477626
0	2669	153.006054303091	2.700660307914
0	2673	153.104129890355	2.22673988969
0	2686	153.670568610151	-0.112839578118
0	2722	154.80955631594	2.919031544552
0	2725	154.834394373159	-1.227638114438
0	2729	154.921191254923	0.510895829971
0	2736	155.466952285287	1.510508800261
0	2755	156.425141534474	0.222280853532
0	2761	156.785567337219	-2.075872258241
0	2764	156.982497838577	0.65963059669
0	2787	160.133456685069	0.035108376631
0	2794	160.345159166792	-1.859631906237
0	2812	163.322531536916	-0.127244355649
0	2836	164.6525835032	0.201223775459
0	2842	164.69985614495	0.459686681539
0	2854	164.957586662722	0.19965021334
0	2860	165.192237375945	-1.953001737405
0	2868	165.509247233181	0.809912362106
0	2905	169.329005404097	0.094558778079
0	2913	169.776076285041	1.019846527658
0	2938	170.71521534689	1.661166696449
0	2962	171.770267476648	1.937493876034
0	2970	172.09495807255	0.868073960697
0	2978	172.426334644999	0.827993653092
0	2983	172.585660549833	0.440768198169
0	2990	173.605906211523	-1.222966748066
0	3020	176.473538592339	0.513152336737
0	3045	177.692107111258	0.835803576626
0	3048	177.726811000935	0.25001638224
0	3051	177.959884791606	-1.218001355375
0	3062	180.297266567847	-0.216437813519
0	3109	182.346278623851	1.448692011653
0	3154	183.81796641217	0.552737279821
0	3183	184.540790071776	1.693023814613
0	3200	185.010663802002	1.052847807279
0	3216	185.559388247912	1.393178512294
0	3232	186.163982310793	3.312565364442
0	3242	186.435904542485	2.362366334214
0	3252	187.075702344083	-0.764396734298
0	3291	188.801430097716	0.119701003883
0	3295	188.900904471123	5.132568435783
0	3324	189.621183515626	-1.139738753468
0	3351	190.801028079202	8.538979430162
0	3354	190.807939842661	1.210850646483
0	3367	191.330543227657	2.325449619211
0	3373	191.406287816066	2.163350789898
0	3404	192.238466898993	0.388662013103
0	3429	193.071284849436	4.754220349711
0	3476	194.747292718282	1.384784065205
0	3495	195.274254281336	-0.340941904247
0	3499	195.314058277987	3.8669546931
0	3515	195.655705636133	0.847205735068
0	3518	195.679430506212	10.755298098041
0	3528	195.864890073344	4.274746626767
0	3531	195.894541680154	3.041338114548
0	3555	196.55219381402	2.027337938799
0	3566	196.99296655616	0.502610003406
0	3575	197.433595444024	1.495334071902
0	3594	197.995637951385	-1.252843882221
0	3597	198.216992086471	0.691868284743
0	3600	198.426079086819	4.330053935936
0	3663	201.686781675501	2.008173653135
0	3669	201.804080147416	1.484664865988
0	3690	202.331162036894	-0.575379021416
0	3709	202.820000515136	0.710644038252
0	3721	203.018869456986	1.086328677409
0	3724	203.069289864123	2.697199473644
0	3732	203.366567989507	-1.5434486593
0	3735	203.419404020826	2.839034755588
0	3750	205.525380283458	-1.915361458058
0	3764	206.91746524291	1.809927249299
0	3778	208.261665134504	-0.626652671189
0	3807	210.189638521039	0.730781801504
0	3821	210.579078336926	0.790415454742
0	3834	211.039110836432	-0.164936546428
0	3857	212.539075072171	-0.042735887737
0	3871	213.085238100872	-0.138618713556
0	3880	213.236922324233	2.966395526065
0	3913	214.42822856086	-2.402237419304
0	3919	214.527793684251	0.87152605943
0	3924	214.62038351905	0.609464079477
0	3930	215.0165824867	1.652968645318
0	3945	217.306535471592	-0.355011965484
0	3996	220.49886335007	3.543669230626
0	4017	221.327100012208	-0.946278647261
0	4020	221.347328775126	1.513166550593
0	4028	222.221725833778	1.835319820479
0	4041	223.380292428892	-1.002568907295
0	4083	225.825694736235	0.865957209311
0	4105	226.808867179064	-1.667220734919
0	4123	227.569352617843	2.227544345514
0	4139	227.917971380813	2.320312945923
0	4148	228.261256321173	2.944145939231
0	4151	228.300524027194	2.711698585062
0	4182	230.20261174323	1.096500756744
0	4185	230.299165155223	-0.561925051925
0	4224	232.043937839419	-1.356736887701
0	4259	233.496707173351	1.771628670148
0	4316	236.035547937675	-0.396367682041
0	4324	236.193005500381	2.245633890779
0	4345	236.850990365823	3.361016264868
0	4353	236.990271229516	-0.931186596841
0	4362	237.202411265851	6.249024355
0	4377	238.167997138448	-2.627846373323
0	4380	238.169888050755	1.468576886863
0	4383	238.631519506079	6.752056238241
0	4400	241.342045627329	0.018110189546
0	4417	242.030925459232	-0.987803357299
0	4420	242.068459414749	0.72970702138
0	4438	244.076459629954	-1.326538622584
0	4460	246.51706732543	-1.564147482928
0	4480	248.049427146817	1.800877107003
0	4503	248.494646618585	0.361598185092
0	4506	248.633161343167	-1.384916474471
0	4509	248.662637146635	0.291147269269
0	4523	250.331653510125	-0.644988468244
0	4531	250.833760737555	0.80152670852
0	4539	251.081330809913	-0.156557242066
0	4549	251.942966183968	-0.075997550909
0	4567	252.447367787388	0.301975907252
0	4583	253.5193451649	0.766133001609
0	4603	254.508715223116	0.888269633165
0	4610	254.546105933392	0.030203432712
0	4648	257.09573471131	-0.042683231306
0	4664	257.612396657254	1.493652949173
0	4701	259.34780547677	2.622512668892
0	4711	259.562810607661	0.982601189966
0	4721	259.804987244753	0.247194847017
0	4725	259.901358990446	1.38689606419
0	4767	261.796239206067	7.753764421571
0	4792	262.853484320181	2.391251944292
0	4802	263.064371802853	1.326937111996
0	4805	263.156979907259	-0.091214656206
0	4835	264.228209331004	3.110437139387
0	4872	265.667020664415	1.031341223765
0	4907	266.719137814676	2.662402420232
0	4917	267.080087303457	5.038141105773
0	4921	267.125944704775	0.971768804244
0	4953	268.49950008885	4.400375350457
0	4994	269.686849799485	0.607529367108
0	5033	270.966925708028	0.605358543915
0	5044	271.303398112547	1.379698174215
0	5047	271.305153501081	4.718187198678
0	5061	271.701426368541	0.159092431451
0	5076	272.212882315822	3.507914722154
0	5084	272.375806492394	-0.064096476446
0	5097	272.760158890327	9.109538414524
0	5108	273.002482538003	0.133715330288
0	5178	275.506903292372	2.040790711484
0	5201	276.179649095862	1.36552623058
0	5205	276.219669888134	2.122616348854
0	5244	277.737005311902	2.294738652673
0	5264	278.184754031357	0.722323074755
0	5272	278.499525297534	5.277812929159
0	5276	278.642041685927	4.218217190481
0	5286	279.037422375459	9.352957331247
0	5295	279.171095340799	0.240342121765
0	5311	279.614228864607	3.969423960902
0	5328	280.191270822164	0.592224619926
0	5353	281.146656090078	0.547354609624
0	5364	281.521789668473	1.071251899107
0	5367	281.556724739734	-0.114460048776
0	5378	281.910813869978	-0.594345658799
0	5386	282.172023923812	4.323572315017
0	5398	282.694235533219	13.873133286687
0	5436	285.662967096158	-2.837037961192
0	5451	286.665580372682	1.257636368561
0	5474	288.578854965967	9.520847945474
0	5481	288.837430342101	-3.164393796615
0	5495	292.952454873581	0.14328302217
0	5511	293.539259631027	0.511616885993
0	5532	294.236558661167	-0.263181174104
0	5560	295.350191192765	1.312768409431
0	5565	295.504120842673	-0.9663010357
0	5582	296.493448678787	2.742982839024
0	5592	296.903356226887	0.098480169169
0	5603	297.482880678826	-1.349238961956
0	5619	299.838113052391	-0.243816134871
0	5636	300.622873898833	-1.603402355904
0	5666	302.786541005467	-1.525508705579
0	5669	303.627608475689	3.185863543198
0	5694	305.443788591534	-0.046542069566
0	5714	306.694560280879	-0.008474321542
0	5722	306.76569843198	1.92189702257
0	5748	308.448060619858	1.065335381453
0	5766	309.180421958329	-0.335443031112
0	5774	309.461796255881	0.963342744922
0	5798	310.865422586294	0.334573206638
0	5818	311.485095639087	0.667692544981
0	5860	312.858932997989	0.835283156228
0	5870	313.277610693185	1.224487152598
0	5877	313.448808881925	-0.901543502854
0	5882	313.475936186436	2.35949853111
0	5887	313.661548542133	1.630774888517
0	5899	314.869092090598	-0.109983199652
0	5920	315.60376071336	0.602533143447
0	5927	315.879917264787	-1.250971542588
0	5943	317.567458142795	-0.914583130887
0	5975	319.495344777915	0.238660267471
0	6003	320.646201484874	0.692451865289
0	6010	320.88285533094	-1.746781794178
0	6016	321.075119483411	3.649741332843
0	6057	324.215212988558	1.353749483733
0	6146	327.948673671769	4.261665549724
0	6161	328.530231467764	3.212703481766
0	6172	328.835703359028	2.353606751902
0	6175	328.892513531487	2.291766691406
0	6191	330.355613689829	-0.498888827427
0	6227	332.063788562668	6.223352786757
0	6238	332.3621057738	0.441978293832
0	6263	333.30364381492	8.001429890278
0	6266	333.340102801291	0.863728181898
0	6270	333.466414589002	0.51471037796
0	6274	333.596617304766	7.087942067593
0	6299	335.317274877715	-0.466921619266
0	6315	336.32957837238	1.413431660982
0	6335	337.335026701988	-0.764222093763
0	6373	339.414917341647	0.1847890441
0	6397	341.054022017834	-2.309469367304
0	6420	342.863665445779	6.613063885505
0	6440	343.588666645692	0.114106736198
0	6443	343.623410838372	3.365828569657
0	6461	343.964883393709	0.317437465682
0	6466	344.089224243769	5.560677472169
0	6521	346.059340239452	-0.259721468653
0	6528	346.262274977974	0.725867094622
0	6537	346.33077590073	2.107520153035
0	6550	346.86117436082	-0.43177904332
0	6565	347.61815055517	-0.558817214938
0	6586	348.613805122023	3.609569745683
0	6595	348.924237587799	5.02202646751
0	6608	349.45720504203	-1.689792068515
0	6622	350.439379947903	1.189385159921
0	6648	351.822010193062	0.619378548734
0	6672	353.001576759376	0.0076282301
0	6694	353.808528704859	2.026544735265
0	6704	353.956022605456	0.097648431755
0	6738	355.215663608233	0.604702639542
0	6747	355.607802467758	2.426920980892
0	6758	355.935988449408	0.382554450775
0	6820	358.773602309868	-0.279611939257
0	6839	359.887341639541	-0.147093637398
0	6852	360.255262508133	-0.805644796273
0	6872	361.460513388483	7.254294450943
0	6883	362.21169821008	-1.188915015136
0	6895	363.965418859574	-0.019664019756
0	6908	364.894167152508	0.006778105683
0	6918	365.535046201481	-0.002684859125
0	6931	366.355522767152	-1.552926549802
0	6950	368.539202618205	-0.548339348627
0	6964	369.474124472502	1.195144635463
0	6986	370.176816509213	0.997640464602
0	6992	370.501188909562	0.371215970189
0	6998	370.745754924503	-0.352969428345
0	7026	372.05160432462	0.528090530417
0	7048	373.746647471598	-0.274145482027
0	7075	375.421714007973	-0.108320205344
0	7100	376.745126652751	-0.833818957595
0	7148	378.758138543492	0.220129484367
0	7155	378.905719542419	1.04078152483
0	7165	379.17357087195	1.145078409351
0	7176	379.460492284796	1.451734464817
0	7205	380.930270751545	-2.320558903562
0	7215	381.657641296212	5.380372500806
0	7225	382.208317628013	1.826583727951
0	7242	383.615377293686	0.010652080288
0	7246	383.711752786409	12.578568515566
0	7295	386.119052874809	-0.831312333799
0	7298	386.495733189536	2.089239554436
0	7314	388.996522292982	-0.425469598828
0	7329	390.33694828276	-1.086448143225
0	7339	391.763843738384	-0.090271601563
0	7360	392.956461765873	-0.200985085628
0	7384	394.240301456597	0.112382403965
0	7402	395.027062359056	-0.15447774174
0	7418	395.497337902085	-1.892914824809
0	7431	396.387363044335	1.639604232143
0	7443	397.18185715797	3.062012353938
0	7478	398.601327586482	0.638629435577
0	7482	398.725398011979	0.17459192732
0	7546	402.82907319498	7.480892646047
0	7565	403.315849939689	0.487154873126
0	7568	403.328602221753	0.040445836848
0	7580	403.584643116372	1.307618591622
0	7609	404.598763987865	1.191617163115
0	7616	404.754777713418	0.221777094076
0	7621	404.779147333195	2.614431578567
0	7624	404.791523393903	2.721590616556
0	7636	405.132161201299	0.16689794953
0	7649	405.67389626005	0.199942536919
0	7652	405.833843647105	-0.61530344549
0	7694	408.975015832905	0.97043530464
0	7706	409.288375925072	0.281092133988
0	7712	409.384511931084	-0.315647602232
0	7727	410.634418776807	-0.678229658806
0	7740	411.725903700433	-0.054584485572
0	7748	412.055226897345	-0.851619349915
0	7760	413.400966982611	-0.708790840239
0	7780	414.975451676604	0.184524968251
0	7804	416.079193398093	0.194986552029
0	7810	416.111231613694	-1.895544395206
0	7838	417.548350721578	1.538940682274
0	7884	419.549007067102	3.637725705057
0	7891	419.934574058523	-1.620874683742
0	7901	420.653443094339	1.957681911393
0	7924	422.547519388345	0.188243067388
0	7948	423.737881359369	-0.425871087112
0	7968	424.567231426678	-0.517014683312
0	7988	425.31117810502	0.92049994975
0	7991	425.325458041876	0.015983979524
0	8019	425.833364734207	0.501155662235
0	8026	425.974223541935	2.957837402748
0	8032	426.116289966797	0.336605965248
0	8049	426.739516196405	1.345712136589
0	8099	428.636414489634	6.672106928014
0	8116	428.907194961926	3.286703595886
0	8125	429.171673127833	1.212786144485
0	8128	429.24360766486	0.372739802351
0	8148	429.790332915824	0.085647631075
0	8158	430.292279933693	0.910780763485
0	8175	431.177136213691	0.103662612072
0	8184	431.458114458463	2.950624212356
0	8227	432.783888646849	1.241582269799
0	8236	433.036759698412	1.403998350003
0	8242	433.388715797861	-0.140158463839
0	8264	434.23276631954	2.716901895044
0	8280	434.912466522722	-0.090799628246
0	8306	435.950978151648	-0.025051291747
0	8326	436.720598878156	0.023751620187
0	8331	436.814529517902	1.263505948286
0	8341	437.241723087729	-0.071732240383
0	8355	437.90127214881	-0.061676052224
0	8386	439.006861657167	-0.077992136649
0	8405	439.445437068039	-0.918907543618
0	8413	439.910897840875	6.189349603979
0	8422	440.319005975038	1.68723568513
0	8443	440.965632291159	0.256434388965
0	8453	441.633386732312	2.505389458873
0	8461	442.037344369228	1.495951137805
0	8542	445.710417689018	-0.032344429116
0	8557	446.121444180066	3.489671744189
0	8571	446.50782773331	2.394165525491
0	8574	446.522487008797	3.046507268873
0	8579	446.804784584589	-1.341900009702
0	8592	448.810726348004	-1.81866343691
0	8600	450.849915293153	-1.668411077477
0	8608	452.549152102034	-0.468702821379
0	8662	455.337534840817	0.740913950638
0	8674	455.597139576028	0.008932960266
0	8678	455.713912296966	1.669367666298
0	8754	460.193143711736	2.691599583026
0	8757	460.196227806882	6.922232717878
0	8771	460.853802640991	-0.220516655335
0	8813	462.655295994553	0.884311859814
0	8839	463.651598836461	0.566915741329
0	8855	464.122266663097	0.494452654779
0	8882	465.291982342306	5.231110563908
0	8885	465.325733456637	-0.182659658198
0	8888	465.347854812475	5.34755030456
0	8901	466.242212573921	4.307807143288
0	8919	467.841774278522	-0.986243614249
0	8927	468.207439728265	8.632649410589
0	8930	468.376277132421	4.541349932762
0	8938	469.588798420094	-0.904746554604
0	8955	471.920844510117	-0.149179849012
0	8960	472.065295221492	0.403697334562
0	8989	473.357245757993	0.789701998711
0	8997	473.610419010402	-0.848648974551
0	9005	474.196983872761	2.382334605918
0	9022	475.203967659229	0.490108028185
0	9025	475.270255167401	-1.907825429388
0	9041	479.334374454732	-1.196093078739
0	9078	481.459775492405	0.411801343641
0	9091	481.964874111281	1.182417209271
0	9096	481.979935237446	0.968694138997
0	9099	481.982287883252	1.449407757279
0	9104	482.399121880423	-1.009395238049
0	9143	485.177252218598	0.526408529534
0	9151	485.613798788508	1.778806248941
0	9154	485.717980741497	-1.710620372566
0	9183	488.972423809921	-0.603853772941
0	9215	490.807032811977	2.553335213397
0	9227	491.096146070979	-0.018500195078
0	9234	491.246475633771	0.677205278479
0	9242	491.482402727553	0.606701999879
0	9250	491.648188743684	0.318614774123
0	9256	491.93134988875	-0.248740272361
0	9283	493.987675509517	0.576920201304
0	9289	494.059561916715	-0.371242825763
0	9304	494.582486331862	0.091245457905
0	9321	494.992147073015	0.560850822574
0	9326	495.196288049861	0.411736073591
0	9340	496.457798647376	1.756395437985
0	9355	496.825061445577	0.127684937643
0	9362	497.246581593287	0.703151722489
0	9384	498.265376884255	0.730394175361
0	9401	499.284561955673	0.769824691031
0	9417	499.578393094564	-2.09013798364
0	9426	500.033079317824	0.581693405878
0	9429	500.112706476709	0.684805133229
0	9445	502.402520550002	0.078768877104
0	9448	502.573308444452	-0.880348832792
0	9464	504.147104065398	0.144383076006
0	9483	504.948139911995	0.132825737276
0	9498	506.347972083633	2.243186844268
0	9518	507.379656464321	-0.13145178038
0	9551	508.853892649906	2.113048704503
0	9592	510.422414602416	-1.531260882564
0	9598	510.601967209432	2.66999729519
0	9612	511.293455180018	2.963745395791
0	9615	511.322799516341	1.636755174421
0	9624	511.819228598702	2.286523879599
0	9633	512.688016766986	-1.213823176103
0	9653	514.589447108949	0.092963581786
0	9669	515.18817052269	0.568739021806
0	9672	515.636016692837	-1.473246959297
0	9685	517.763472238566	-0.242739764807
0	9698	518.495204564278	0.115531636453
0	9723	519.421003449782	0.314125154761
0	9758	520.834579472341	0.515970530938
0	9791	522.171925987813	1.16867210476
0	9794	522.17536126066	-0.320626670609
0	9804	522.526178769735	2.607978450419
0	9841	523.772767159254	4.463922381056
0	9851	524.072248096298	0.764480920346
0	9859	524.402226354461	5.439290102923
0	9870	525.025510756928	1.99656550208
0	9930	527.476083464277	1.599505340231
0	9936	527.559436597529	1.990990045059
0	9961	528.438836894931	2.13782262248
0	9978	528.882573397936	1.152692766671
0	10003	529.992709323443	4.466658024712
0	10014	530.376926075676	1.651327685947
0	10034	531.141538632044	1.217676326915
0	10045	531.867663003342	-3.425811431564
0	10056	535.535034253039	-0.28240312969
0	10075	536.632851929398	-0.293795565238
0	10078	536.781370900123	0.609799360124
0	10104	537.968473867403	0.961803446657
0	10133	539.566915638746	-0.550342944409
0	10136	539.731389755345	0.910483616696
0	10163	541.174318183554	-0.503511277318
0	10187	542.212254958265	0.320616508757
0	10204	542.868725890746	2.266331749908
0	10227	543.835596694048	1.172727453203
0	10233	543.917900101762	-1.001919240817
0	10244	545.609276399718	-1.797671739389
0	10275	548.118317919996	0.241091390922
0	10324	549.924856880151	2.344368051123
0	10338	550.433472095872	2.691243313526
0	10341	550.44497404571	-0.001270249647
0	10348	550.615227385225	0.945906779706
0	10353	550.807017272384	3.012085526548
0	10383	552.39613752898	0.804677892815
0	10405	553.303189299106	0.747870121204
0	10413	553.352124724511	0.048326889175
0	10421	553.726242710738	-1.660402533349
0	10447	555.747004218403	4.923596199834
0	10463	556.507970524776	-0.900187546957
0	10481	557.951439116462	1.707045788816
0	10496	559.701101950567	-0.698262034929
0	10511	560.832613315884	-0.717367113416
0	10514	561.344381619227	0.725006430394
0	10546	562.751540987428	0.836994651865
0	10553	563.08692060572	-1.161702464982
0	10556	563.22093289562	0.515740618608
0	10565	566.375250555018	-0.296712396583
0	10580	567.338159949529	0.305408405647
0	10592	567.986326826203	0.306208187274
0	10598	568.086042595527	0.173773250239
0	10657	570.500447858447	0.886336276682
0	10667	570.895583020313	2.733191932903
0	10703	572.138660492117	2.893044291754
0	10714	572.482992116904	3.867979854483
0	10719	572.757165111474	-1.807279216193
0	10722	572.848591388021	1.58945068707
0	10729	573.487356296217	2.449138129192
0	10754	575.460305304356	0.063466557395
0	10763	575.910268768643	1.036516594483
0	10784	576.85652957301	0.871051619783
0	10807	577.93781261021	-1.291486196209
0	10814	578.594928453431	1.347671247906
0	10846	580.135455096294	0.686712399934
0	10851	580.222933699327	-0.958251250927
0	10858	580.917954456907	1.575606336079
0	10912	583.224017684354	1.092223910832
0	10917	583.311000287441	1.114683517671
0	10934	584.0180257786	-0.274144289632
0	10957	584.894121307627	3.370459618289
0	10971	585.239416118166	0.243989334864
0	11008	587.865962020776	-4.834381195906
0	11025	589.89814987589	5.431207926756
0	11043	593.412883911226	0.146028583346
0	11071	594.597268602775	-0.384708877343
0	11078	594.964297433407	1.388886352253
0	11086	595.481567857634	-1.793115748286
0	11126	598.977406758703	0.833592850441
0	11132	599.106540124783	1.699920305568
0	11135	599.177622953112	-0.049899999253
0	11151	600.659532240076	-0.431118816636
0	11161	601.46740997808	-0.136801560834
0	11173	602.09046456169	-0.841263460337
0	11195	603.401457388451	0.440406778198
0	11240	604.762685696958	0.496660979045
0	11247	604.89122061016	0.532692063429
0	11260	605.289609455515	2.093836004657
0	11273	605.914667936482	1.285085761125
0	11298	607.051638411	0.367940727156
0	11309	607.287959859068	0.595158967162
0	11358	609.88662963597	0.789636540689
0	11366	610.104791943773	5.708857490125
0	11370	610.125424199433	0.782820143396
0	11391	610.849982197266	0.602195867818
0	11397	611.152247083298	2.014779486873
0	11404	611.536947794361	2.222370578428
0	11418	612.107938523194	-0.513136339604
0	11422	612.243624290692	0.171639699877
0	11448	613.71314740101	0.01281441176
0	11477	614.839457715151	5.377406532252
0	11493	615.442054562999	-0.243039441942
0	11519	616.987228859167	0.042729248049
0	11549	618.365921867749	0.19474625811
0	11575	619.53051835566	0.440800509832
0	11615	621.180516854569	-1.616961653687
0	11618	621.228782791038	6.923394551291
0	11621	621.247836060019	2.028687994879
0	11624	621.342557938098	0.425875928752
0	11636	623.012687127622	-4.713478346897
0	11665	628.845797094567	0.731476621114
0	11670	629.046226422671	0.868435821085
0	11689	629.776196984216	-0.476055239701
0	11719	631.137584458046	0.301774813162
0	11728	631.886529138451	1.328187289704
0	11739	632.696184491968	-0.046788110424
0	11766	633.547931979433	0.66731496397
0	11775	633.762294849511	-0.831103736401
0	11788	634.34375701609	5.235212299613
0	11798	634.6622283775	1.239078848097
0	11813	635.166255459475	0.293568320329
0	11827	636.059053960181	0.236047011652
0	11838	636.358278657962	-2.978113934343
0	11843	636.523897485012	0.319893171035
0	11867	640.076590958429	0.727632504695
0	11870	640.089153973182	0.145142803737
0	11898	641.274367591406	0.07466474478
0	11909	641.986775262211	1.025547337731
0	11924	642.955230479394	-0.631083930102
0	11937	644.422199987051	-0.294306398064
0	11966	645.566373112135	-0.397542150051
0	11978	645.845544678927	0.55430622471
0	11981	645.903455468522	1.100358738655
0	12008	647.360977247259	0.69636696746
0	12025	648.496697521316	1.888520456544
0	12030	649.106314256341	-0.588846504433
0	12039	649.852779003823	-0.764139058052
0	12064	650.9726138649	0.329554956524
0	12072	651.16709476292	0.216976601704
0	12106	652.538261190679	0.566544054737
0	12118	652.861943688322	0.228382534242
0	12171	654.881035158715	1.769468237432
0	12190	655.71755429512	2.46924420109
0	12198	656.08442127437	-2.720666185321
0	12209	657.103263712051	5.876478215691
0	12217	657.728921894823	6.900760778482
0	12220	658.466723680597	7.849207626121
0	12263	661.12420066938	-1.196043521191
0	12269	661.53296707407	1.413331641028
0	12278	661.654284622152	1.983903767152
0	12316	663.277559523672	0.802661713793
0	12319	663.294798417679	-0.119948559036
0	12336	663.746084374981	1.003137423531
0	12359	664.707625511688	2.059754808238
0	12414	667.518154547232	-0.879364849553
0	12418	667.62028687933	1.02109498981
0	12426	668.192643576887	1.277636582832
0	12452	669.770995143738	7.180763606551
0	12456	669.937628301501	3.451259388372
0	12502	672.005021123125	0.685153821926
0	12511	672.298163189912	2.315641603864
0	12523	672.738021487276	-0.007336479158
0	12554	673.985143624437	0.720747598418
0	12557	674.000268684303	-1.296950163476
0	12573	675.06893249352	3.090384856758
0	12588	675.774351592397	0.078621814778
0	12603	676.867961357073	0.249908659025
0	12606	676.891756324767	-0.000702768168
0	12614	677.091369287511	-3.242442821726
0	12624	681.049929189879	-1.414115845196
0	12662	684.685410974896	-0.08050205215
0	12668	684.76705128971	1.972728864541
0	12671	684.772432694655	0.259784828535
0	12693	686.400005368073	-0.501119360187
0	12699	686.69946072503	1.036695051582
0	12767	689.201408291381	1.884744748624