file 1097715 1441633199                                         
version 2
run General-0-20150907-15:39:47-8086
attr configname General
attr datetime 20150907-15:39:47
attr experiment General
attr inifile omnetpp.ini
attr iterationvars ""
attr iterationvars2 $repetition=0
attr measurement ""
attr network CloudDataCenterTS
attr processid 8086
attr repetition 0
attr replication #0
attr resultdir results
attr runnumber 0
attr seedset 0

vector 0  CloudDataCenterTS.sink  responseTime_0  ETV
vector 1  CloudDataCenterTS.sink  delayTime_0  ETV
vector 2  CloudDataCenterTS.sink  queuingTime_0  ETV
vector 3  CloudDataCenterTS.sink  serviceTime_0  ETV
vector 4  CloudDataCenterTS.sink  responseTime_1  ETV
vector 5  CloudDataCenterTS.sink  delayTime_1  ETV
vector 6  CloudDataCenterTS.sink  queuingTime_1  ETV
vector 7  CloudDataCenterTS.sink  serviceTime_1  ETV
0	795 144598 38 113581 0.817298619172 3599.871241934488 3570 0.006695566745 16.252389397317 4873.5665382279 15040.14464879
1	145393 144587 38 113581 0.817298619172 3599.871241934488 3570 0.000598940865 1.349168749368 746.49065163903 236.2955656988
2	289980 115118 38 113581 0.817298619172 3599.871241934488 3570 0 7.530547041752 1366.8278986082 3136.7834536849
3	405098 144550 38 113581 0.817298619172 3599.871241934488 3570 0.012660241502 8.71277396123 5266.592605716 11868.703199458
4	549648 144639 64 113585 1.437099431975 3599.900381842633 3571 0.004763934393 14.96759828997 4698.7654773161 14156.026766097
5	694287 144579 64 113585 1.437099431975 3599.900381842633 3571 0.000130354131 1.167876690223 739.67263404698 228.11070671795
6	838866 114240 64 113585 1.437099431975 3599.900381842633 3571 0 10.545564570085 1268.089661862 3110.9102445566
7	953106 144609 64 113585 1.437099431975 3599.900381842633 3571 0.044942479215 8.767414607445 5197.0880965635 11410.953837508
