file 1277589 1442336685                                         
version 2
run General-0-20150915-19:04:36-12347
attr configname General
attr datetime 20150915-19:04:36
attr experiment General
attr inifile omnetpp.ini
attr iterationvars ""
attr iterationvars2 $repetition=0
attr measurement ""
attr network CloudDataCenterTS
attr processid 12347
attr repetition 0
attr replication #0
attr resultdir results
attr runnumber 0
attr seedset 0

vector 0  CloudDataCenterTS.sink  responseTime_0  ETV
vector 1  CloudDataCenterTS.sink  delayTime_0  ETV
vector 2  CloudDataCenterTS.sink  queuingTime_0  ETV
vector 3  CloudDataCenterTS.sink  serviceTime_0  ETV
vector 4  CloudDataCenterTS.sink  responseTime_1  ETV
vector 5  CloudDataCenterTS.sink  delayTime_1  ETV
vector 6  CloudDataCenterTS.sink  queuingTime_1  ETV
vector 7  CloudDataCenterTS.sink  serviceTime_1  ETV
0	797 183819 36 132139 0.724976306026 3599.497557227546 4522 0.002491813425 12.088483727123 4434.207212425 9281.4108552935
1	184616 160761 36 132139 0.724976306026 3599.497557227546 4522 7.36997e-06 1.07223 446.97611088223 90.526236323808
2	345377 136528 36 132139 0.724976306026 3599.497557227546 4522 0 6.4892576537 661.81130747858 930.81188893099
3	481905 157306 36 132139 0.724976306026 3599.497557227546 4522 1.40211e-05 6.18154 3131.7317497312 4201.1473741619
4	639211 183597 47 132092 1.553978140538 3597.820623313611 4520 0.005717532995 13.953331163422 4572.1350836713 10017.789232477
5	822808 160817 47 132092 1.553978140538 3597.820623313611 4520 7.2456e-06 0.988298 446.47038170122 88.375711409236
6	983625 136973 47 132092 1.553978140538 3597.820623313611 4520 0 6.720574526476 701.38673553628 1112.7409203221
7	1120598 156991 47 132092 1.553978140538 3597.820623313611 4520 4.24003e-05 6.4285 3211.0297574672 4531.1363303338
