file 680227 1442045961                                          
version 2
run General-0-20150912-10:19:13-6843
attr configname General
attr datetime 20150912-10:19:13
attr experiment General
attr inifile omnetpp.ini
attr iterationvars ""
attr iterationvars2 $repetition=0
attr measurement ""
attr network CloudDataCenterTS
attr processid 6843
attr repetition 0
attr replication #0
attr resultdir results
attr runnumber 0
attr seedset 0

vector 0  CloudDataCenterTS.sink  responseTime_0  ETV
vector 1  CloudDataCenterTS.sink  delayTime_0  ETV
vector 2  CloudDataCenterTS.sink  queuingTime_0  ETV
vector 3  CloudDataCenterTS.sink  serviceTime_0  ETV
vector 4  CloudDataCenterTS.sink  responseTime_1  ETV
vector 5  CloudDataCenterTS.sink  delayTime_1  ETV
vector 6  CloudDataCenterTS.sink  queuingTime_1  ETV
vector 7  CloudDataCenterTS.sink  serviceTime_1  ETV
0	795 91156 48 90237 1.422748213753 3599.943788098133 2260 0.014557937867 22.276541465542 4402.5830109048 17315.3326737
1	91951 91177 48 90237 1.422748213753 3599.943788098133 2260 0.502396228718 4.455565452034 2091.0570234811 2334.2049983652
2	183128 66354 48 90237 1.422748213753 3599.943788098133 2260 0 14.53821216033 495.06388198184 1817.6293252873
3	249482 91158 48 90237 1.422748213753 3599.943788098133 2260 1.168196422274 15.157559460272 5573.0540779985 17785.720296709
4	340640 91183 62 90230 3.093440024741 3599.612554415227 2261 0.010572325546 19.229130002123 4221.9192805803 14969.568114787
5	431823 91229 62 90230 3.093440024741 3599.612554415227 2261 0.502590447983 5.485802997474 2084.8687234056 2330.811719661
6	523052 65973 62 90230 3.093440024741 3599.612554415227 2261 0 10.429421284503 386.3532174969 1062.861130003
7	589025 91202 62 90230 3.093440024741 3599.612554415227 2261 1.168216947234 15.990802113694 5504.970659397 17203.43657831
