version 2
run General-2-20150916-20:45:54-25759
attr configname General
attr datetime 20150916-20:45:54
attr experiment General
attr inifile omnetpp.ini
attr iterationvars $0=4715
attr iterationvars2 "$0=4715, $repetition=0"
attr measurement $0=4715
attr network CloudDataCenterTS
attr processid 25759
attr repetition 0
attr replication #0
attr resultdir results
attr runnumber 2
attr seedset 2

vector 4  CloudDataCenterTS.sink  responseTime_1  ETV
vector 5  CloudDataCenterTS.sink  delayTime_1  ETV
vector 6  CloudDataCenterTS.sink  queuingTime_1  ETV
vector 7  CloudDataCenterTS.sink  serviceTime_1  ETV
vector 0  CloudDataCenterTS.sink  responseTime_0  ETV
vector 1  CloudDataCenterTS.sink  delayTime_0  ETV
vector 2  CloudDataCenterTS.sink  queuingTime_0  ETV
vector 3  CloudDataCenterTS.sink  serviceTime_0  ETV
0	42	0.771929469692	0.771929469692
0	65	2.226631148753	0.634881148753
0	96	3.282821525106	0.895201525106
0	110	3.415855080547	0.232355080547
0	154	4.857160434912	0.877790434912
0	189	5.984596868654	1.209346868654
0	233	7.155941537151	1.584821537151
0	243	7.240732999804	0.873732999804
0	271	8.08687997552	0.92400997552
0	292	8.557048788771	0.598298788771
0	317	8.949647867746	0.195027867747
0	342	9.866572899864	0.316082899864
0	363	10.457714848672	0.111314848672
0	383	11.211461303833	0.069261303833
0	453	13.192482386531	1.254382386531
0	470	13.417366074268	0.683366074268
0	490	13.868967817857	0.339067817857
0	519	14.647762225366	0.322062225366
0	546	15.540462908963	0.418862908963
0	598	17.063066620769	0.349666620769
0	611	17.346743454682	1.429243454682
0	634	17.881293088215	0.372093088215
0	692	19.277084939719	0.176084939719
0	715	19.847739763283	1.542639763283
0	732	20.13768036848	0.24078036848
0	779	21.320692884015	0.627992884015
0	828	22.416610314237	0.132110314237
0	866	23.844475394855	0.764075394855
0	901	24.411778340847	0.535578340847
0	922	24.815118872919	0.143018872919
0	932	24.953706542618	3.465106542618
0	959	25.83102444225	0.36302444225
0	995	27.26683813073	0.20713813073
0	1000	27.342251736439	1.078351736439
0	1029	28.651437132023	0.795837132023
0	1043	28.894293224042	0.242793224042
0	1094	30.548930823706	1.101530823706
0	1102	30.717652315058	0.474452315058
0	1115	31.233082135971	0.193982135971
0	1145	32.118477170764	0.283477170764
0	1156	32.698766908251	0.067866908252
0	1175	33.53615047815	0.109450478151
0	1201	34.69200831226	0.46940831226
0	1224	35.510010589388	0.491510589388
0	1270	37.099702668719	0.489502668719
0	1277	37.28203397062	1.46763397062
0	1300	37.877527874302	0.471427874302
0	1319	38.650165456238	0.448165456238
0	1372	40.360093313062	1.362193313062
0	1375	40.383231029225	0.589531029225
0	1402	41.266743804192	0.677143804192
0	1416	41.427824480787	0.042324480787
0	1462	42.832893463497	0.651593463497
0	1497	43.783704543418	0.806504543418
0	1502	43.850578529487	0.077478529487
0	1523	44.682641179572	0.113641179572
0	1555	45.832381911087	0.467581911087
0	1570	46.656810004457	0.496110004457
0	1588	47.27937108338	0.32277108338
0	1661	49.406321917379	0.858021917379
0	1673	49.745570527292	0.401370527292
0	1696	50.25847399529	2.50597399529
0	1702	50.368159644502	0.228059644502
0	1740	51.709031121937	0.773031121937
0	1807	53.103974854376	0.576274854376
0	1859	54.509768507031	2.777968507031
0	1865	54.657393698447	1.333793698447
0	1884	55.087411504364	0.967911504364
0	1918	56.114739436292	0.403539436292
0	1921	56.192059063554	1.276759063554
0	1944	57.016751721439	0.509651721439
0	1982	58.216104745048	0.913104745048
0	2030	59.853481655295	1.754681655295
0	2044	60.043624411322	1.148924411322
0	2066	60.555788262784	0.865188262784
0	2072	60.616557141341	0.130057141341
0	2126	62.474103800716	1.191803800716
0	2133	62.508667510895	0.430467510895
0	2166	63.319731577695	0.445631577695
0	2218	65.031225986256	1.361225986256
0	2236	65.417619808445	0.951819808445
0	2288	66.584900426853	1.323200426853
0	2316	67.230911987159	1.17331198716
0	2340	67.774394255213	0.125094255213
0	2347	67.897182471839	1.043682471839
0	2387	69.137197329586	0.691997329586
0	2407	69.491413816955	0.250313816955
0	2468	71.259961074935	0.427161074935
0	2475	71.371652333692	1.334652333692
0	2495	71.928105657944	0.299405657944
0	2524	72.770951516348	0.346351516348
0	2572	74.28348873363	0.26718873363
0	2585	74.605772206964	1.385272206964
0	2622	75.844602773614	0.236502773614
0	2651	76.992468470646	2.180268470646
0	2684	77.633201786027	0.433401786027
0	2691	77.737698127218	1.333698127218
0	2712	78.380771372501	0.385071372501
0	2766	79.769631978954	0.978031978954
0	2780	80.270375479273	0.682875479273
0	2803	80.800287826785	0.416987826785
0	2828	81.440817611575	0.261617611575
0	2869	82.119846622917	0.144746622917
0	2885	83.032734919574	0.261834919574
0	2908	84.030148600709	0.463348600709
0	2924	84.698799911749	0.336099911749
0	2952	85.735982626699	0.577382626699
0	2981	86.326426320581	0.372026320581
0	3033	87.991790310289	0.445590310289
0	3036	88.049692091286	1.299392091286
0	3081	89.630683606036	0.492783606036
0	3088	89.658480914345	1.316380914345
0	3118	90.375766487538	0.441966487538
0	3129	90.762465240408	0.032765240408
0	3155	91.780091433916	0.254491433916
0	3194	92.771255199121	0.449855199121
0	3245	94.519631559102	0.606431559102
0	3261	94.820128818829	1.702828818829
0	3315	96.05887321774	0.55397321774
0	3361	97.447899141649	0.351199141649
0	3370	97.705514455743	1.404714455743
0	3388	98.231932201065	0.339332201065
0	3420	99.086014318225	4.376914318225
0	3461	100.029644689555	1.341244689555
0	3466	100.192555413195	0.708255413195
0	3559	102.5608231215	1.4848231215
0	3575	102.83991930079	2.55991930079
0	3644	104.822054071307	2.950054071307
0	3663	105.259503937657	0.204503937657
0	3683	105.831768215354	3.163768215354
0	3719	106.39900857387	2.13900857387
0	3730	106.592911387539	3.128911387539
0	3768	107.387344396492	1.536344396492
0	3783	107.609588558604	0.962588558604
0	3820	108.677305315692	0.438305315692
0	3836	109.137419527175	0.102419527175
0	3847	109.470515706093	2.027515706093
0	3872	110.238571904426	0.407571904426
0	3893	111.106701360699	0.479701360699
0	3907	111.703537512489	0.281537512489
0	3978	113.742128862107	1.524128862107
0	3987	113.834132312199	0.820132312199
0	4011	114.649514336897	0.839514336897
0	4039	115.561493752473	0.955493752473
0	4056	116.058366762247	0.656366762247
0	4112	117.468696267015	0.474696267015
0	4133	117.956572961243	1.758572961243
0	4170	118.761617120406	0.972617120406
0	4205	119.66277975041	1.07777975041
0	4253	120.528421425165	0.351421425165
0	4276	121.156819685985	0.183819685985
0	4296	121.733341909779	2.352341909779
0	4336	122.619924950469	0.850924950469
0	4370	123.478936365606	0.913936365606
0	4389	124.146529172481	0.785529172481
0	4448	125.54064073741	0.58864073741
0	4459	125.604954282197	1.448954282197
0	4475	126.114079677707	0.366079677707
0	4509	127.229231105531	0.685231105531
0	4535	127.962973385662	0.622973385662
0	4566	129.023068895404	0.887068895404
0	4612	130.133689805491	1.201689805492
0	4631	130.54005459962	0.81205459962
0	4643	130.972947357732	0.449947357732
0	4679	131.925962651092	0.606962651093
0	4716	133.001618777272	0.886618777272
0	4744	133.822350832595	0.911350832595
0	4763	134.230464454867	0.523464454867
0	4775	134.615281294109	0.11228129411
0	4797	135.505090886028	0.206090886028
0	4814	136.115117868428	0.020117868428
0	4866	137.702471353994	0.016471353994
0	4877	138.078445837736	1.188445837737
0	4893	138.635435591779	0.153435591779
0	4919	139.453851269028	0.175851269029
0	4978	141.528675920901	1.454675920901
0	4981	141.536464849924	0.666464849924
0	5022	142.959498871493	1.293498871493
0	5041	143.376127850724	0.914127850724
0	5063	143.939832415837	0.682832415837
0	5117	145.086288581363	1.033288581363
0	5150	145.720653871095	0.871653871095
0	5199	147.325583444423	0.884583444423
0	5213	147.516829758656	1.871829758656
0	5216	147.570753776006	0.333753776006
0	5240	148.322598651943	0.289598651943
0	5264	149.288450034382	0.459450034382
0	5288	150.139980131239	0.515980131239
0	5309	150.768019393777	0.348019393777
0	5323	151.264624643573	0.048624643573
0	5368	152.889584227295	0.877584227295
0	5411	154.094030846975	0.490030846975
0	5419	154.26138630836	1.45338630836
0	5456	155.196442167581	0.796442167581
0	5498	156.38883814098	0.39783814098
0	5520	156.830516219955	1.634516219955
0	5523	156.856440717627	0.069440717627
0	5578	158.5369754059	0.9539754059
0	5602	159.148659036606	0.769659036606
0	5615	159.261658795753	0.086658795753
0	5659	161.056439448892	0.289439448892
0	5728	162.804087092272	1.241087092272
0	5751	163.154985624131	0.796985624131
0	5766	163.47998529788	3.50898529788
0	5806	164.293277297104	0.343277297104
0	5909	166.457231134296	0.915231134296
0	5915	166.55760244338	3.40360244338
0	5956	167.383455285633	2.637455285633
0	5999	167.949085653139	1.611085653139
0	6018	168.266014897126	1.132014897126
0	6031	168.696326068661	0.766326068661
0	6078	169.8752569163	1.1502569163
0	6090	170.105250936922	0.584250936922
0	6144	171.45104547527	0.33804547527
0	6154	171.70301642855	1.38601642855
0	6174	172.036371437683	0.127371437683
0	6269	175.05887966329	1.55787966329
0	6308	175.940287431335	3.235287431335
0	6339	176.608231000672	1.516231000672
0	6350	176.686073935557	0.798073935557
0	6377	177.094311936022	0.410311936022
0	6412	177.845501302488	0.365501302488
0	6424	178.234217075175	3.937217075175
0	6478	179.338542228516	0.266542228516
0	6508	179.891708238669	1.615708238669
0	6535	180.732572385231	0.864572385231
0	6545	180.782994846552	0.118994846552
0	6566	181.546499094625	0.087499094625
0	6606	183.193576644614	0.938576644614
0	6613	183.334245479794	0.283245479794
0	6692	185.434580448347	1.587580448347
0	6719	186.050355100013	1.407355100013
0	6732	186.319191644076	0.084191644076
0	6744	186.814483807509	1.375483807509
0	6804	188.656203589598	1.625203589598
0	6812	188.962832004967	1.136832004967
0	6815	188.987715912696	0.365715912696
0	6844	189.860704631383	0.442704631383
0	6884	191.048751849979	0.834751849979
0	6896	191.469158362463	0.459158362463
0	6911	191.893821317992	0.087821317992
0	6988	193.959724939624	1.357724939624
0	7034	194.939010665052	0.746010665052
0	7047	195.071565124204	1.673565124204
0	7084	196.311231780987	1.322231780987
0	7141	197.793037386297	1.212037386297
0	7165	198.227052468137	0.054052468137
0	7223	199.652839941677	3.867839941677
0	7245	199.871140238934	2.494140238934
0	7257	200.235479332217	1.266479332217
0	7265	200.515607999953	0.750607999953
0	7307	201.498282035933	0.938282035933
0	7310	201.521359940178	0.165359940178
0	7327	202.27895843629	0.12695843629
0	7350	203.232484873991	0.284484873991
0	7424	205.472261375474	0.136261375474
0	7437	205.773111885376	1.233111885376
0	7459	206.32831587597	2.58431587597
0	7490	206.997437966658	0.070437966658
0	7518	208.23531498409	0.51231498409
0	7543	208.875633170126	0.356633170126
0	7547	208.941555512001	2.810555512001
0	7579	210.027654606238	0.712654606238
0	7598	210.582048789086	0.471048789086
0	7655	212.046217796107	1.139217796107
0	7685	212.606433124632	0.108433124632
0	7692	212.789941577252	1.086941577252
0	7712	213.361631720434	0.067631720434
0	7739	214.435531957935	0.345531957935
0	7771	215.099607444837	0.213607444837
0	7868	217.906319080046	2.224319080046
0	7901	218.391224175867	0.321224175867
0	7926	218.991060565684	0.126060565684
0	7938	219.285860597374	2.807860597374
0	7999	220.727346332758	1.066346332758
0	8026	221.473309808913	1.016309808913
0	8036	221.593849961136	0.340849961136
0	8049	221.883700479081	4.609700479081
0	8081	222.816109967229	0.767109967229
0	8095	223.047117549928	0.202117549928
0	8123	224.33009145829	0.68909145829
0	8140	224.633188462622	0.196188462622
0	8155	225.436097042228	0.204097042228
0	8178	226.412742208859	0.384742208859
0	8201	227.553927018942	0.729927018942
0	8215	228.007094945209	0.387094945209
0	8257	229.365375347409	0.949375347409
0	8262	229.387744995163	0.175744995163
0	8315	231.033392398724	1.025392398724
0	8318	231.036586494935	0.232586494935
0	8372	232.524474555272	0.925474555272
0	8391	233.12331737612	0.72831737612
0	8407	233.643515065858	0.452515065858
0	8434	234.535296202773	0.548296202773
0	8495	236.147953121174	0.568953121174
0	8561	238.145785886819	0.179785886819
0	8618	239.270860057295	0.508860057295
0	8649	239.861357123445	0.303357123445
0	8663	240.107385323841	5.324385323841
0	8677	240.282647935676	3.907647935676
0	8702	240.811859557482	0.457859557482
0	8708	241.015441564612	3.844441564612
0	8779	242.683489056514	1.533489056514
0	8814	243.167397035317	1.221397035317
0	8820	243.218428357516	0.476428357516
0	8874	244.672889625799	1.134889625799
0	8912	245.554779272004	1.221779272004
0	8942	246.372220910921	0.447220910921
0	8953	246.684340754574	1.555340754574
0	8974	247.08115986831	0.36015986831
0	8998	247.938701200636	0.421701200636
0	9011	248.465883691785	0.152883691785
0	9034	249.360070519765	0.251070519765
0	9066	250.495040950393	0.590040950393
0	9082	251.019662892913	0.319662892913
0	9098	251.56856299415	0.07256299415
0	9165	253.859766907782	0.771766907782
0	9184	254.110366738692	1.818366738692
0	9198	254.305857480402	0.421857480402
0	9247	255.872026747522	1.192026747522
0	9275	256.521621173338	0.249621173338
0	9282	256.671156634108	1.195156634108
0	9340	258.153044677812	0.290044677812
0	9343	258.16570694024	1.09870694024
0	9390	259.566228157896	0.907228157896
0	9396	259.68871048099	0.233710480991
0	9445	261.223538419759	0.176538419759
0	9485	262.324684563033	2.073684563034
0	9498	262.549377028106	0.706377028106
0	9515	262.926160258477	0.287160258477
0	9582	264.658610868437	1.224610868437
0	9585	264.704954298955	0.474954298955
0	9627	265.913752569135	0.091752569135
0	9690	267.452802894827	0.834802894827
0	9694	267.478160098951	0.064160098951
0	9729	268.213446703467	3.187446703467
0	9769	269.199332525775	0.989332525776
0	9842	270.763789698548	0.962789698548
0	9868	271.39841657325	2.392416573251
0	9892	271.920475501288	0.527475501289
0	9915	272.252800963684	0.063800963684
0	9980	273.371939485917	0.386939485917
0	9985	273.446885307313	2.849885307314
0	10003	274.064652013295	0.283652013295
0	10019	274.977645346476	0.400645346476
0	10047	275.970058058831	0.597058058831
0	10076	276.854573372129	0.686573372129
0	10126	277.984371766357	1.020371766357
0	10134	278.233978483296	0.473978483296
0	10160	279.048585737362	0.492585737363
0	10186	279.916580408717	0.564580408718
0	10235	281.056504698948	0.908504698948
0	10265	281.840337436258	0.896337436258
0	10273	281.939245633263	0.199245633263
0	10320	283.473250419815	0.142250419815
0	10375	285.058828148196	0.931828148196
0	10396	285.449009871484	2.914009871484
0	10431	286.266618512414	1.343618512414
0	10436	286.423165258561	0.704165258561
0	10491	287.993889724969	1.478889724969
0	10509	288.387581511768	0.280581511768
0	10548	289.644284773442	2.333284773442
0	10562	289.808795298561	0.110795298561
0	10602	290.915773315871	0.421773315871
0	10661	292.288611526006	3.386611526006
0	10667	292.346656949513	1.056656949513
0	10698	293.083310499816	0.997310499816
0	10729	293.784509594072	0.902509594072
0	10759	294.598138755634	0.124138755634
0	10769	295.085935938668	1.407935938668
0	10792	295.913241971537	0.644241971537
0	10817	296.563321423872	0.498321423872
0	10878	298.329853756347	1.468853756347
0	10891	298.487989489894	0.830989489894
0	10915	299.028626562943	0.575626562943
0	10977	300.460449698041	0.415449698041
0	11027	301.76274858754	0.12674858754
0	11067	302.964782791778	2.123782791778
0	11094	303.751322849183	1.319322849183
0	11136	304.748904881646	1.520904881646
0	11199	305.98323314474	1.16323314474
0	11211	306.323794036161	2.299794036161
0	11240	306.920689889173	7.671689889173
0	11249	307.128388477731	0.716388477731
0	11261	307.299293934025	1.683293934025
0	11322	308.640575078986	0.637575078986
0	11362	309.619875322701	2.411875322701
0	11365	309.640719588427	0.841719588427
0	11398	310.49679182105	0.90179182105
0	11410	310.78265384572	0.39165384572
0	11438	311.675247721095	0.488247721095
0	11519	313.692659350267	1.709659350267
0	11559	314.542431184992	0.967431184992
0	11568	315.110509101615	0.740509101615
0	11584	315.447467184406	2.668467184406
0	11598	315.630853674843	0.464853674843
0	11650	317.265719833784	1.303719833784
0	11712	318.782106213415	2.024106213415
0	11715	318.821693613893	1.267693613893
0	11718	318.876188850727	0.526188850727
0	11733	319.419562509952	0.273562509952
0	11755	320.220650127934	0.278650127934
0	11792	321.289456279018	0.552456279018
0	11832	322.33555800683	0.00655800683
0	11844	322.694927718552	1.161927718552
0	11861	323.468795813389	0.343795813389
0	11893	324.373190600814	0.452190600814
0	11926	325.341198700431	0.624198700431
0	11995	327.326409734328	0.222409734328
0	11998	327.354155764664	1.841155764664
0	12018	327.79669806472	1.48769806472
0	12105	329.783600672773	0.291600672773
0	12113	329.917540112722	2.017540112722
0	12170	331.794279395046	3.098279395046
0	12234	333.148696720293	0.472696720293
0	12244	333.442403758492	2.358403758492
0	12261	333.666003099387	1.786003099387
0	12265	333.733789634501	3.445789634501
0	12268	333.739020034951	0.268020034951
0	12324	335.489085244183	1.222085244183
0	12387	336.916390238014	1.057390238014
0	12438	338.150225027292	3.087225027292
0	12441	338.20649325274	0.75549325274
0	12454	338.304162919406	1.649162919406
0	12492	339.272005694526	1.025005694526
0	12501	339.419893046555	0.376893046555
0	12563	341.384197742634	1.546197742634
0	12580	341.623661593607	0.989661593607
0	12585	341.730191049003	0.300191049003
0	12653	343.64352073093	0.62152073093
0	12698	344.901357932247	0.287357932247
0	12706	345.114832167579	2.888832167579
0	12764	346.570205434363	0.365205434363
0	12800	347.400137382219	0.399137382219
0	12804	347.481949347852	3.663949347852
0	12808	347.507343312062	2.097343312062
0	12825	347.984583029964	0.187583029964
0	12873	349.203481041965	0.610481041965
0	12935	350.788509407977	1.399509407977
0	12955	351.162103923245	0.181103923245
0	12992	352.068744011502	0.291744011502
0	13017	352.646542805082	2.461542805082
0	13051	353.414285130605	0.842285130605
0	13065	353.894244766489	0.526244766489
0	13107	355.258870704787	1.094870704787
0	13138	356.141095007827	1.181095007827
0	13174	356.942183850568	1.186183850568
0	13212	357.605990169322	0.257990169322
0	13276	359.513620866099	1.369620866099
0	13286	359.682726696682	0.743726696682
0	13315	360.439125476374	3.887125476374
0	13318	360.515357063655	0.780357063655
0	13352	361.359239431038	0.032239431038
0	13359	361.513869230241	0.982869230241
0	13389	362.497204982587	0.374204982587
0	13405	363.31591375584	0.39691375584
0	13435	364.706204924626	0.991204924626
0	13486	366.045046040945	0.739046040945
0	13507	366.501208138886	0.399208138886
0	13532	367.383428473074	2.872428473074
0	13554	368.131641434941	1.233641434941
0	13580	369.082820468084	1.388820468084
0	13593	369.380436553873	0.094436553873
0	13602	369.549027295385	1.059027295385
0	13626	370.715113595733	0.633113595733
0	13643	371.119783243801	0.241783243801
0	13698	373.050096065111	1.377096065111
0	13721	373.759624593022	0.494624593022
0	13763	374.954808388446	0.097808388446
0	13771	375.156923183026	2.687923183026
0	13916	378.9852666468	0.9452666468
0	13925	379.236976304528	1.991976304528
0	13934	379.54358826568	3.09458826568
0	13962	380.147970616791	4.494970616791
0	13968	380.258454702061	0.626454702061
0	13993	381.086994400938	0.658994400938
0	13996	381.098735091902	2.262735091902
0	14007	381.27121659127	7.21021659127
0	14023	381.828864704802	0.604864704802
0	14043	382.71235967344	0.69235967344
0	14057	383.036004894578	0.220004894578
0	14209	386.904210191773	1.701210191773
0	14218	387.051281951737	1.052281951737
0	14230	387.246020541313	0.451020541313
0	14254	387.593084528	3.186084528
0	14264	387.772236766481	0.181236766481
0	14394	390.701339217952	1.518339217952
0	14410	390.925480331003	0.151480331003
0	14440	391.626261103808	3.239261103808
0	14445	391.699401381349	1.720401381349
0	14455	391.864564288975	0.294564288975
0	14480	392.38916339187	8.77716339187
0	14494	392.770250102229	0.404250102229
0	14512	393.601512997901	0.439512997901
0	14539	394.509093675723	0.551093675723
0	14617	396.689787604453	1.935787604453
0	14627	396.897927421679	0.551927421679
0	14687	398.61411066946	1.47311066946
0	14707	398.881193791719	0.944193791719
0	14734	399.392935404774	3.842935404774
0	14739	399.492722756754	0.759722756754
0	14755	399.88329851306	0.35429851306
0	14811	401.889960164719	1.564960164719
0	14827	402.113403514129	0.196403514129
0	14836	402.229645683668	1.108645683668
0	14868	403.228965234453	0.516965234453
0	14889	403.599632097001	0.091632097001
0	14978	405.950276513051	0.850276513051
0	15007	406.697436633562	0.801436633562
0	15046	407.622008826867	3.318008826867
0	15049	407.652301241199	0.164301241199
0	15059	408.181120158157	1.489120158157
0	15073	408.52315626899	0.23915626899
0	15153	410.84523722992	0.17423722992
0	15168	411.091867962099	2.012867962099
0	15193	411.666906089967	1.791906089967
0	15206	411.919617342733	0.452617342733
0	15243	412.912525198173	0.649525198173
0	15258	413.276106142192	0.217106142192
0	15374	416.396179161365	0.154179161365
0	15394	416.763971551103	1.317971551103
0	15421	417.208018100637	2.557018100637
0	15424	417.218497644287	3.363497644287
0	15491	418.965358213364	1.927358213364
0	15499	419.126169234657	0.496169234657
0	15557	420.488934760642	0.266934760642
0	15575	420.917352839414	1.491352839414
0	15622	422.139217639491	1.121217639491
0	15663	423.268873384383	1.455873384383
0	15669	423.359860413486	5.525860413486
0	15695	424.051724369208	0.646724369208
0	15731	424.902071165868	2.293071165868
0	15747	425.275288438799	0.278288438799
0	15783	426.199359145938	0.406359145938
0	15793	426.584480322927	2.383480322927
0	15810	426.925766682118	0.336766682118
0	15829	427.72193801457	0.33693801457
0	15856	428.858789296076	0.678789296076
0	15890	429.764539557748	0.788539557748
0	15907	430.120913482625	0.348913482625
0	15984	432.593545286695	0.433545286695
0	16014	433.264728760485	2.696728760485
0	16039	433.809201833462	2.445201833462
0	16048	434.004588126433	1.048588126433
0	16105	435.567848104108	1.815848104108
0	16134	436.142306530193	1.595306530193
0	16176	436.972891397069	0.037891397069
0	16195	437.48453671724	2.14153671724
0	16209	437.784046187358	1.645046187358
0	16250	439.109330407871	0.582330407871
0	16253	439.216847354026	1.485847354026
0	16304	440.701237460554	1.378237460554
0	16330	441.201591362101	0.287591362101
0	16339	441.610333694238	1.491333694238
0	16352	441.923288494298	0.213288494298
0	16372	442.85017128568	0.34417128568
0	16398	443.711305288693	0.409305288693
0	16447	445.408225735711	0.514225735711
0	16470	445.96302703548	0.27302703548
0	16525	447.146995451903	3.048995451903
0	16546	447.470896704435	0.984896704435
0	16581	448.134030758672	0.057030758672
0	16647	449.947905449497	0.278905449497
0	16661	450.417466185562	3.136466185562
0	16681	450.774754121059	0.309754121059
0	16692	451.21978178044	2.34678178044
0	16717	451.816071369922	0.555071369922
0	16805	453.761367727908	0.113367727908
0	16815	454.015883375439	1.958883375439
0	16826	454.286869254489	1.433869254489
0	16860	455.239572628351	0.795572628351
0	16892	455.915088636331	0.675088636331
0	16940	457.213026911718	0.381026911718
0	17000	459.040900279884	3.004900279884
0	17046	459.94521485838	0.72521485838
0	17102	461.394090609062	1.379090609062
0	17109	461.438471574687	0.627471574687
0	17115	461.538944289126	3.114944289126
0	17118	461.598956873581	3.970956873581
0	17161	462.766827106774	1.159827106774
0	17200	464.011252945026	0.812252945026
0	17268	465.693925425951	0.902925425951
0	17273	465.749452229805	1.754452229805
0	17311	466.495356764223	0.908356764223
0	17324	466.873598145843	0.491598145843
0	17342	467.243256813939	4.840256813939
0	17365	467.771406255641	0.593406255641
0	17386	468.393818484055	0.419818484055
0	17415	469.201468408632	0.431468408632
0	17487	470.857334058945	1.291334058945
0	17502	471.085155482448	0.723155482448
0	17521	471.350761769369	0.192761769369
0	17599	473.726080620208	0.977080620208
0	17619	474.337267393809	0.792267393809
0	17736	477.215058739528	1.282058739528
0	17748	477.463702657849	2.326702657849
0	17768	477.855434650351	5.901434650351
0	17777	477.981962708732	1.252962708732
0	17844	479.602443781427	5.261443781427
0	17847	479.603612991876	1.282612991876
0	17888	480.661134620648	1.545134620648
0	17916	481.36852336024	0.66052336024
0	17942	481.767218016333	1.855218016333
0	17947	481.852533180072	4.327533180072
0	17951	481.919784488484	0.415784488484
0	18016	483.674802677109	0.578802677109
0	18075	485.033286255028	0.345286255028
0	18144	486.838627394576	4.538627394576
0	18148	486.855996364314	0.576996364314
0	18189	488.106444052179	0.235444052179
0	18240	489.165222034591	3.682222034591
0	18244	489.207802275236	5.315802275236
0	18267	489.570566733063	2.495566733063
0	18276	489.719446247128	1.052446247128
0	18297	490.180118734499	0.717118734499
0	18351	491.477549711369	0.422549711369
0	18391	492.391012086885	0.541012086885
0	18444	493.66539022865	3.40639022865
0	18458	494.014805628198	0.572805628198
0	18476	494.343305132539	1.697305132539
0	18525	495.77014949354	0.73614949354
0	18555	496.519850033528	0.689850033528
0	18588	497.308816823308	0.682816823308
0	18604	497.513633110256	0.091633110256
0	18612	497.559968074865	3.321968074865
0	18645	498.820050598736	0.603050598736
0	18683	500.013948184629	0.204948184629
0	18717	500.890056573109	1.877056573109
0	18728	501.225812268221	0.620812268221
0	18770	502.478237848307	0.281237848307
0	18779	502.621961387644	1.220961387644
0	18837	504.283846469034	0.494846469034
0	18859	504.965537015987	1.972537015987
0	18868	505.028448864677	0.444448864677
0	18879	505.38359103305	0.00359103305
0	18903	506.457988731082	0.281988731082
0	18922	506.997039869106	0.025039869106
0	18954	508.403166429749	0.635166429749
0	18998	509.734637664556	1.170637664556
0	19014	510.056834018755	0.696834018755
0	19048	510.740254859212	0.584254859212
0	19085	511.934529586758	0.983529586758
0	19110	512.677181915071	0.930181915071
0	19128	513.158054441621	0.615054441621
0	19150	513.994994486661	0.655994486661
0	19164	514.377656180596	0.242656180596
0	19189	515.022750697206	0.091750697206
0	19256	517.509887837488	1.782887837488
0	19335	519.320810281876	2.797810281876
0	19344	519.482340035983	2.164340035983
0	19358	519.647702018678	1.533702018678
0	19373	519.925318143844	1.015318143845
0	19388	520.475124051808	0.769124051808
0	19406	520.800342735465	0.298342735466
0	19502	523.103755093379	0.213755093379
0	19514	523.28349434713	1.18949434713
0	19530	523.748845892602	2.450845892602
0	19542	523.939956012911	0.254956012912
0	19553	524.577145758643	0.096145758643
0	19574	525.433007727946	0.156007727946
0	19609	526.780249781146	0.707249781146
0	19649	527.991239287515	0.326239287516
0	19689	529.189333252821	0.728333252821
0	19701	529.289608604704	0.032608604705
0	19723	529.930579376288	3.061579376288
0	19742	530.550506268004	0.498506268004
0	19792	531.73442608104	0.886426081041
0	19799	531.782080666802	0.138080666802
0	19820	532.69552342451	0.25552342451
0	19841	533.441703391129	0.205703391129
0	19976	537.107210182838	2.279210182838
0	19989	537.233332313224	0.814332313224
0	19997	537.437863899747	0.222863899747
0	20006	537.608573619435	1.984573619435
0	20015	537.863753253765	3.831753253765
0	20056	539.075153809185	0.268153809185
0	20063	539.292613159976	1.281613159977
0	20124	540.785347148823	0.386347148823
0	20135	541.096108867778	1.493108867779
0	20158	541.631146465013	0.436146465013
0	20218	543.28604849795	0.500048497951
0	20236	543.671761342961	0.089761342961
0	20244	543.797675286832	1.806675286832
0	20312	545.672913574989	0.498913574989
0	20332	545.993727464158	1.615727464158
0	20337	546.024505487179	0.054505487179
0	20382	547.618391786403	0.056391786403
0	20410	548.299957652081	1.533957652082
0	20422	548.51116322604	0.153163226041
0	20461	549.966164340807	0.813164340807
0	20472	550.200536324953	0.251536324954
0	20502	550.915966411704	0.170966411704
0	20532	552.220304925687	0.679304925687
0	20567	553.269771968586	0.932771968586
0	20595	554.063745851224	0.930745851224
0	20647	555.348305155307	1.419305155307
0	20692	556.152667657669	1.427667657669
0	20695	556.174551969741	0.654551969741
0	20768	557.884426801366	0.772426801367
0	20792	558.559900076016	0.651900076016
0	20795	558.679500934282	2.363500934282
0	20810	558.927583768379	0.22358376838
0	20834	560.064270005561	0.564270005561
0	20864	560.986123355702	0.690123355702
0	20998	564.041985789774	0.562985789774
0	21011	564.255346601152	1.572346601152
0	21048	565.050088639534	0.775088639534
0	21060	565.089979896502	3.202979896503
0	21071	565.266928235834	0.195928235834
0	21084	565.665959139602	4.573959139602
0	21124	566.786295808465	0.919295808465
0	21135	567.025054459842	0.362054459842
0	21202	568.793388885076	0.539388885076
0	21255	570.345770252884	1.295770252884
0	21262	570.501584325835	0.655584325835
0	21275	570.729179643546	3.270179643546
0	21284	570.922762744864	0.280762744864
0	21322	572.158839598954	0.720839598954
0	21346	572.542271077519	0.308271077519
0	21396	574.021497279102	0.991497279102
0	21403	574.101381213989	0.275381213989
0	21482	576.198131239095	0.781131239095
0	21516	577.025238917962	2.404238917962
0	21521	577.091029805045	0.082029805045
0	21534	577.633150108696	1.420150108696
0	21547	577.850611676937	0.045611676937
0	21611	579.773584113711	1.172584113711
0	21618	579.8774469893	0.4804469893
0	21641	580.563729508845	0.370729508845
0	21660	581.240114319468	0.252114319468
0	21697	582.56332149667	0.77932149667
0	21719	583.209549173695	0.629549173695
0	21767	584.455837339019	0.283837339019
0	21781	584.72018999724	1.34418999724
0	21811	585.473424360622	0.505424360622
0	21829	585.865692343428	0.101692343428
0	21858	586.709964463047	0.149964463047
0	21906	588.116494184321	0.761494184321
0	21927	588.615622024414	0.464622024414
0	21962	589.908315167399	0.961315167399
0	22000	590.966766560013	1.223766560013
0	22020	591.488280007632	0.949280007632
0	22065	592.739689849909	1.404689849909
0	22068	592.786246311434	0.655246311434
0	22114	594.016587726914	0.294587726914
0	22118	594.053445774151	1.126445774151