file 1931589 1442839700                                         
version 2
run General-1-20150921-14:48:17-7227
attr configname General
attr datetime 20150921-14:48:17
attr experiment General
attr inifile omnetpp.ini
attr iterationvars $0=42653
attr iterationvars2 "$0=42653, $repetition=0"
attr measurement $0=42653
attr network CloudDataCenterTS
attr processid 7227
attr repetition 0
attr replication #0
attr resultdir results
attr runnumber 1
attr seedset 1

vector 0  CloudDataCenterTS.sink  responseTime_0  ETV
vector 1  CloudDataCenterTS.sink  delayTime_0  ETV
vector 2  CloudDataCenterTS.sink  queuingTime_0  ETV
vector 3  CloudDataCenterTS.sink  serviceTime_0  ETV
0	608 504419 29 201650 1.688218945863 10798.311681338407 12147 -9.026779118563 32.525079149044 13263.438987137 83733.464752546
1	505027 500562 29 201650 1.688218945863 10798.311681338407 12147 6.009046e-06 3.405036013386 3860.1488725255 2504.3098539058
2	1005589 425308 29 201650 1.688218945863 10798.311681338407 12147 0 23.20944068883 8554.8593654164 31206.966415272
3	1430897 500692 29 201650 1.688218945863 10798.311681338407 12147 4.1657554e-05 10.679233911745 11571.802622359 22273.795710072
