file 3926546 1442429154                                         
version 2
run General-1-20150916-20:45:45-25753
attr configname General
attr datetime 20150916-20:45:45
attr experiment General
attr inifile omnetpp.ini
attr iterationvars $0=6287
attr iterationvars2 "$0=6287, $repetition=0"
attr measurement $0=6287
attr network CloudDataCenterTS
attr processid 25753
attr repetition 0
attr replication #0
attr resultdir results
attr runnumber 1
attr seedset 1

vector 0  CloudDataCenterTS.sink  responseTime_0  ETV
vector 1  CloudDataCenterTS.sink  delayTime_0  ETV
vector 2  CloudDataCenterTS.sink  queuingTime_0  ETV
vector 3  CloudDataCenterTS.sink  serviceTime_0  ETV
vector 4  CloudDataCenterTS.sink  responseTime_1  ETV
vector 5  CloudDataCenterTS.sink  delayTime_1  ETV
vector 6  CloudDataCenterTS.sink  queuingTime_1  ETV
vector 7  CloudDataCenterTS.sink  serviceTime_1  ETV
0	818 562617 29 401969 0.412955972118 10798.739467333762 13567 0.003841547622 14.829354477138 13976.67390602 31161.741521729
1	563435 493592 29 401969 0.412955972118 10798.739467333762 13567 7.36997e-06 1.07223 1351.8785623563 272.26883297094
2	1057027 423650 29 401969 0.412955972118 10798.739467333762 13567 0 10.085873833635 2233.6949084541 3687.9854832294
3	1480677 482800 29 401969 0.412955972118 10798.739467333762 13567 2.80769e-06 7.31253 9447.6264778626 13048.281697961
4	1963477 562630 32 402012 0.704965274545 10799.910568025843 13568 0.00252988112 12.414372534977 14039.059105783 31500.782390166
5	2526107 493818 32 402012 0.704965274545 10799.910568025843 13568 7.2456e-06 1.01784 1348.4649339865 269.55707898377
6	3019925 424093 32 402012 0.704965274545 10799.910568025843 13568 0 8.239979325269 2264.63991055 3687.1270738517
7	3444018 482528 32 402012 0.704965274545 10799.910568025843 13568 2.28038e-05 7.24546 9450.9911401756 12975.240863157
