version 2
run General-4-20150921-14:48:29-7242
attr configname General
attr datetime 20150921-14:48:29
attr experiment General
attr inifile omnetpp.ini
attr iterationvars $0=94215
attr iterationvars2 "$0=94215, $repetition=0"
attr measurement $0=94215
attr network CloudDataCenterTS
attr processid 7242
attr repetition 0
attr replication #0
attr resultdir results
attr runnumber 4
attr seedset 4

vector 0  CloudDataCenterTS.sink  responseTime_0  ETV
vector 1  CloudDataCenterTS.sink  delayTime_0  ETV
vector 2  CloudDataCenterTS.sink  queuingTime_0  ETV
vector 3  CloudDataCenterTS.sink  serviceTime_0  ETV
0	29	1.688218945863	0.163227542119
0	56	3.144937787988	-0.902022082861
0	62	3.517542548033	1.161650325966
0	74	4.656230977262	-0.325072264184
0	94	5.730747624909	-2.551819893695
0	112	6.999990622002	1.700844155333
0	145	9.707393398397	0.162917464387
0	165	10.250731495198	-0.749197324321
0	172	10.391229246579	0.331451684537
0	175	10.396237384559	1.52916815253
0	215	12.593896510565	2.600435768441
0	260	14.359038942046	-1.846436225092
0	269	14.864355288323	2.25568757171
0	272	15.05721821353	2.312442728619
0	285	16.983001007157	-0.675076027384
0	303	18.71818440491	-0.304775006222
0	323	20.203944456557	0.033280113424
0	345	21.007549466351	-0.581599801316
0	352	21.732741679148	1.422820623565
0	368	22.25885860514	0.187700189268
0	380	22.728485423043	-0.07643012752
0	394	23.005761371354	0.070095596229
0	403	23.365687618778	-0.435221001506
0	412	23.828246526713	1.571505157014
0	435	24.811068914704	0.783862555553
0	453	26.466770082352	-0.150559795948
0	474	27.508889405072	0.353588057636
0	514	29.110138740283	1.343653123583
0	519	29.20479625477	0.280605957859
0	532	29.730689424306	-0.160182095984
0	547	30.316714199783	-0.334142334681
0	551	30.441431299477	1.685924461982
0	573	31.3960652019	3.723684688397
0	584	31.601059872157	2.552643755661
0	613	32.57847466676	0.925462630307
0	631	33.432577785573	-0.080520015342
0	647	34.117114519203	1.556885161872
0	678	35.125771913795	0.878866595875
0	685	35.261847616761	-0.317573785523
0	688	35.331548849662	0.713392424812
0	691	35.359279452449	1.36462344216
0	717	37.179299217558	0.243906015329
0	738	37.849205029897	0.487501145115
0	748	38.441305660157	6.885165221044
0	758	38.929135142332	1.579729378137
0	761	38.951179006787	-0.04836190535
0	815	42.887259686293	-1.159028676427
0	828	43.985673866596	1.200800482594
0	847	44.726983027154	2.511212579908
0	862	45.077109255241	0.390979253761
0	865	45.095126828932	2.258659211149
0	872	45.464102923111	0.187891265704
0	884	45.793524695865	-2.080638420293
0	892	46.332540049681	1.761661136981
0	906	47.348490447431	1.727847936049
0	921	48.874551540208	-0.060882150308
0	934	49.536192355476	-1.202157805296
0	966	52.20317043784	-1.488136835496
0	979	53.004969374573	1.599936158399
0	989	54.099181711541	-1.976455897603
0	1019	56.975381676595	-0.893068474688
0	1031	57.399681016532	1.188385089587
0	1037	57.928085973846	1.843987689105
0	1047	58.122922434504	-0.65196077131
0	1054	58.5898689748	0.539303428807
0	1066	59.191852974401	-1.172197196584
0	1131	62.536345808402	2.02978828181
0	1138	62.600042676809	1.810235655448
0	1171	63.863856137928	1.292110020563
0	1175	63.928855173394	2.575317212365
0	1182	64.369472755222	2.562025368264
0	1215	65.714688601571	0.610224650875
0	1246	68.409425387191	-0.153744488425
0	1255	68.590367498966	7.494248413194
0	1280	69.408932133173	4.837829807182
0	1288	69.759151222146	0.40061297963
0	1297	70.408949104883	-0.866138594094
0	1304	71.259477505901	2.378589510339
0	1343	73.155895122185	0.481197824762
0	1364	74.051214950154	0.406466257009
0	1367	74.354146500054	-2.103523714983
0	1370	74.805746239874	3.192493582731
0	1387	77.243262675804	0.333512742333
0	1395	77.670910556933	-0.078001968903
0	1409	78.449660075297	0.129132605394
0	1417	78.851549060655	-0.440366588038
0	1453	80.572946960845	0.845759194222
0	1456	80.579031275082	0.250186156748
0	1476	81.627064883275	0.53872013961
0	1488	81.867277531249	0.056636000402
0	1515	83.346923877191	0.234756816567
0	1522	83.670998092119	3.43984536243
0	1529	83.971095206813	-1.182842447234
0	1566	86.605189955931	-0.643259442985
0	1572	86.910495978485	1.664469771071
0	1587	87.709887758671	4.946137780981
0	1619	88.791696863571	0.755126911799
0	1622	88.821988994215	0.880470421708
0	1643	89.661152502453	1.233671460332
0	1652	90.131801574702	-4.384530935362
0	1678	96.351135319319	-0.28035675152
0	1700	97.362997463803	0.40762763364
0	1709	97.857208132516	1.066123044047
0	1740	99.179819140702	-0.41867230479
0	1747	99.453835996705	0.325927578292
0	1750	99.56622178171	0.91531595362
0	1768	100.814567925066	-2.42878567535
0	1791	104.117825276889	0.330602511811
0	1797	104.430008222681	-2.742900372074
0	1814	105.735191781096	1.901247719054
0	1827	107.617851728077	0.208846755073
0	1840	108.104481751965	-0.953812976325
0	1872	109.980986857804	-0.112406890878
0	1892	110.430980454019	0.710167735742
0	1905	110.956510310866	0.846290638806
0	1908	110.961184124821	0.290626843181
0	1919	111.27192658033	3.461294068859
0	1959	112.621155004066	0.725881485254
0	1972	113.038604609892	0.490330174317
0	2029	115.710872377227	3.786477734235
0	2037	115.819259411748	2.496153703161
0	2042	115.865609480396	-1.848715827385
0	2045	116.623514508972	5.571665836111
0	2069	118.967386049882	0.396414005314
0	2079	119.790115882919	-0.578310932389
0	2111	122.075938121803	-0.198477575789
0	2135	122.856675181652	0.370287367984
0	2167	124.038650025869	0.119276180373
0	2175	124.252683504211	2.705449854678
0	2185	124.760940672069	-2.32146398591
0	2196	125.571660966541	2.863099810955
0	2204	127.180577807848	-0.165983736861
0	2235	128.26020347059	0.861376799977
0	2243	128.574875886253	-2.532278751757
0	2256	129.672187186782	1.937057701214
0	2273	131.756561021067	-1.264288701934
0	2279	131.818429292788	0.533103692978
0	2292	133.788331747225	-0.256302630762
0	2306	135.017060298753	-0.044894070553
0	2332	137.50750217747	-0.167845223495
0	2335	137.582633070297	0.477822686786
0	2356	138.75134731143	-0.035950509388
0	2394	140.812272502231	-1.3664298139
0	2397	140.899055225258	2.244593834041
0	2411	141.843287021649	1.777644090804
0	2428	143.065461042549	0.088006990783
0	2447	144.069744318512	-1.422479755897
0	2452	144.137535661693	0.500050704076
0	2518	148.026893178354	0.586283141124
0	2526	148.332085107033	2.156294294619
0	2545	149.637456849775	2.69507924162
0	2571	150.672334564065	3.948403600214
0	2579	150.8085436569	4.817565836348
0	2588	150.997998287473	0.716002262969
0	2616	151.990087089828	0.894969408869
0	2632	152.653341941335	2.197760769049
0	2636	152.726500442786	-0.401236287023
0	2640	152.843113019128	5.666159294535
0	2648	153.006054303091	2.700660307914
0	2652	153.104129890355	2.22673988969
0	2665	153.670568610151	-0.112839578118
0	2699	154.80955631594	2.919031544552
0	2702	154.889690228625	-1.172342258972
0	2705	154.921191254923	0.510895829971
0	2715	155.972015514391	2.015572029365
0	2733	156.425141534474	0.222280853532
0	2740	156.785567337219	-2.075872258241
0	2743	157.216388985866	0.893521743979
0	2769	160.159466804357	0.061118495919
0	2776	160.345159166792	-1.859631906237
0	2791	163.322531536916	-0.127244355649
0	2807	164.472343782091	0.23217431868
0	2815	164.6525835032	0.201223775459
0	2830	164.957586662722	0.19965021334
0	2836	165.192237375945	-1.953001737405
0	2844	165.509247233181	0.809912362106
0	2881	169.329005404097	0.094558778079
0	2889	169.776076285041	1.019846527658
0	2914	170.71521534689	1.661166696449
0	2938	171.770267476648	1.937493876034
0	2946	172.09495807255	0.868073960697
0	2954	172.426334644999	0.827993653092
0	2959	172.585660549833	0.440768198169
0	2966	173.605906211523	-1.222966748066
0	2996	176.473538592339	0.513152336737
0	3021	177.692107111258	0.835803576626
0	3024	177.726811000935	0.25001638224
0	3027	177.959884791606	-1.218001355375
0	3041	180.287776066555	-0.225928314811
0	3086	182.346278623851	1.448692011653
0	3132	183.81796641217	0.552737279821
0	3160	184.540790071776	1.693023814613
0	3178	185.010663802002	1.052847807279
0	3193	185.559388247912	1.393178512294
0	3209	186.138564601288	3.287147654937
0	3219	186.41048683298	2.336948624709
0	3229	187.075702344083	-0.764396734298
0	3269	188.801430097716	0.119701003883
0	3273	188.889205573573	5.120869538233
0	3300	189.621183515626	-1.139738753468
0	3315	190.319867031161	8.057818382121
0	3330	190.786939848917	1.189850652739
0	3342	191.309543233913	2.304449625467
0	3349	191.406287816066	2.163350789898
0	3380	192.448487629564	0.598682743674
0	3412	193.661150965139	5.344086465414
0	3462	195.615011226608	-0.000184958975
0	3469	195.655705636133	0.847205735068
0	3472	195.709961194638	2.347452541561
0	3481	195.864890073344	4.274746626767
0	3485	195.894541680154	3.041338114548
0	3512	196.836756422254	5.389652837367
0	3529	197.433595444024	1.495334071902
0	3538	197.571740318946	12.647607910775
0	3552	198.216992086471	0.691868284743
0	3558	198.426079086819	4.330053935936
0	3562	198.540155790226	2.049799237472
0	3570	198.769019937718	4.244164062497
0	3573	198.861826739988	-0.386655093618
0	3638	201.686781675501	2.008173653135
0	3646	201.852432288231	1.533017006803
0	3666	202.331162036894	-0.575379021416
0	3685	202.868352655951	0.758996179067
0	3693	202.926040182789	0.993499403212
0	3696	202.964825111355	2.592734720876
0	3705	203.366567989507	-1.5434486593
0	3708	203.467756161641	2.887386896403
0	3725	205.525380283458	-1.915361458058
0	3737	206.454207875041	1.34666988143
0	3751	208.072221274585	-0.816096531108
0	3786	210.189638521039	0.730781801504
0	3795	210.402054887261	0.613392005077
0	3810	211.039110836432	-0.164936546428
0	3833	212.539075072171	-0.042735887737
0	3847	213.085238100872	-0.138618713556
0	3856	213.236922324233	2.966395526065
0	3889	214.42822856086	-2.402237419304
0	3895	214.527793684251	0.87152605943
0	3900	214.62038351905	0.609464079477
0	3909	215.0165824867	1.652968645318
0	3923	217.22545669802	-0.436090739056
0	3976	220.49886335007	3.543669230626
0	4001	221.327100012208	-0.946278647261
0	4004	221.347328775126	1.513166550593
0	4007	221.670749616261	1.284343602962
0	4020	223.124850789795	-1.258010546392
0	4064	225.825694736235	0.865957209311
0	4084	226.582144951648	-1.893942962335
0	4110	227.556133370609	2.239022988667
0	4113	227.569352617843	2.227544345514
0	4121	227.69540107663	2.106575634498
0	4127	227.917971380813	2.320312945923
0	4155	230.023844962438	-0.83724524471
0	4158	230.20261174323	1.096500756744
0	4197	232.085433024202	-1.315241702918
0	4221	233.338202358134	1.613123854931
0	4286	236.035547937675	-0.396367682041
0	4294	236.193005500381	2.245633890779
0	4315	236.850990365823	3.361016264868
0	4323	236.990271229516	-0.931186596841
0	4332	237.202411265851	6.249024355
0	4347	238.167997138448	-2.627846373323
0	4350	238.169888050755	1.468576886863
0	4353	238.631519506079	6.752056238241
0	4370	241.342045627329	0.018110189546
0	4387	242.030925459232	-0.987803357299
0	4390	242.068459414749	0.72970702138
0	4408	244.076459629954	-1.326538622584
0	4430	246.51706732543	-1.564147482928
0	4450	248.049427146817	1.800877107003
0	4476	248.494646618585	0.361598185092
0	4479	248.633161343167	-1.384916474471
0	4482	248.762556996053	0.391067118687
0	4495	250.331653510125	-0.644988468244
0	4509	251.078465613529	1.046231584494
0	4512	251.112737459376	-0.125150592603
0	4522	251.942966183968	-0.075997550909
0	4540	252.57588900314	0.430497123004
0	4550	253.455104429737	0.701892266446
0	4572	254.508715223116	0.888269633165
0	4579	254.546105933392	0.030203432712
0	4624	256.830396438997	0.711652730916
0	4631	256.910140734998	-0.228277207618
0	4679	258.853537308413	2.128244500535
0	4686	258.98789461893	4.945419834434
0	4694	259.367747599922	0.787538182227
0	4700	259.554943905972	1.040480979716
0	4709	259.70308446053	0.145292062794
0	4736	261.32905798237	0.866825606481
0	4754	262.013351954015	0.275917263158
0	4772	262.702052338869	-0.546142224596
0	4805	264.228209331004	3.110437139387
0	4838	265.667020664415	1.031341223765
0	4869	266.719137814676	2.662402420232
0	4894	267.684699143014	1.530523242483
0	4897	267.738841741697	5.696895544013
0	4941	269.25825452709	5.159129788697
0	4959	269.745604237725	0.666283805348
0	4996	270.966925708028	0.605358543915
0	5008	271.305153501081	4.718187198678
0	5013	271.362152550787	1.438452612455
0	5025	271.660180806781	0.117846869691
0	5043	272.375806492394	-0.064096476446
0	5057	272.671636754062	3.966669160394
0	5083	273.352266680074	0.483499472359
0	5093	273.618913328567	9.968292852764
0	5148	275.506903292372	2.040790711484
0	5171	276.179649095862	1.36552623058
0	5175	276.219669888134	2.122616348854
0	5214	277.737005311902	2.294738652673
0	5234	278.184754031357	0.722323074755
0	5242	278.499525297534	5.277812929159
0	5246	278.642041685927	4.218217190481
0	5256	279.037422375459	9.352957331247
0	5265	279.171095340799	0.240342121765
0	5281	279.614228864607	3.969423960902
0	5298	280.191270822164	0.592224619926
0	5323	281.146656090078	0.547354609624
0	5334	281.521789668473	1.071251899107
0	5337	281.556724739734	-0.114460048776
0	5348	281.910813869978	-0.594345658799
0	5356	282.172023923812	4.323572315017
0	5368	282.694235533219	13.873133286687
0	5406	285.662967096158	-2.837037961192
0	5421	286.665580372682	1.257636368561
0	5444	288.578854965967	9.520847945474
0	5451	288.837430342101	-3.164393796615
0	5471	292.952454873581	0.14328302217
0	5487	293.539259631027	0.511616885993
0	5508	294.236558661167	-0.263181174104
0	5536	295.350191192765	1.312768409431
0	5541	295.504120842673	-0.9663010357
0	5558	296.493448678787	2.742982839024
0	5568	296.903356226887	0.098480169169
0	5579	297.482880678826	-1.349238961956
0	5595	299.838113052391	-0.243816134871
0	5612	300.622873898833	-1.603402355904
0	5642	302.786541005467	-1.525508705579
0	5645	303.627608475689	3.185863543198
0	5670	305.443788591534	-0.046542069566
0	5690	306.694560280879	-0.008474321542
0	5698	306.76569843198	1.92189702257
0	5724	308.448060619858	1.065335381453
0	5742	309.180421958329	-0.335443031112
0	5750	309.461796255881	0.963342744922
0	5774	310.865422586294	0.334573206638
0	5794	311.485095639087	0.667692544981
0	5836	312.858932997989	0.835283156228
0	5846	313.277610693185	1.224487152598
0	5853	313.448808881925	-0.901543502854
0	5858	313.475936186436	2.35949853111
0	5863	313.661548542133	1.630774888517
0	5875	314.869092090598	-0.109983199652
0	5896	315.60376071336	0.602533143447
0	5903	315.879917264787	-1.250971542588
0	5919	317.567458142795	-0.914583130887
0	5951	319.495344777915	0.238660267471
0	5979	320.646201484874	0.692451865289
0	5986	320.88285533094	-1.746781794178
0	5992	321.075119483411	3.649741332843
0	6024	323.749310866227	0.887847361402
0	6148	328.943169777416	3.625641791418
0	6168	329.44864166868	2.966545061554
0	6173	329.45399094687	-1.400511570386
0	6176	329.505451841139	2.904705001058
0	6182	329.717623956392	6.030615834347
0	6189	329.987385350094	4.685171425452
0	6194	330.167971618285	4.327535842374
0	6204	330.985486703441	4.476811466268
0	6229	332.3621057738	0.441978293832
0	6237	332.678775239294	0.202400619901
0	6254	333.466414589002	0.51471037796
0	6281	335.317274877715	-0.466921619266
0	6284	335.550068950534	0.633922239136
0	6318	337.335026701988	-0.764222093763
0	6354	339.414917341647	0.1847890441
0	6378	341.054022017834	-2.309469367304
0	6386	341.367514247772	5.116912687498
0	6411	343.146754293412	2.889172024697
0	6421	343.450315976451	-0.024243933043
0	6428	343.5793738082	5.0508270366
0	6443	343.964883393709	0.317437465682
0	6499	346.253252550509	-0.065809157596
0	6502	346.262274977974	0.725867094622
0	6511	346.33077590073	2.107520153035
0	6523	346.86117436082	-0.43177904332
0	6537	347.759705960941	-0.417261809167
0	6578	349.674230861626	-1.472766248919
0	6587	350.011350143703	5.007114767363
0	6598	350.414912349211	6.512701228922
0	6601	350.439379947903	1.189385159921
0	6625	351.822010193062	0.619378548734
0	6647	353.001576759376	0.0076282301
0	6672	353.956022605456	0.097648431755
0	6700	355.215663608233	0.604702639542
0	6719	355.856137446269	4.074153476675
0	6737	356.524251266355	0.970817267722
0	6749	356.904355722345	3.723474235479
0	6791	358.773602309868	-0.279611939257
0	6810	359.889366879589	-0.14506839735
0	6823	360.255262508133	-0.805644796273
0	6853	362.462538628531	8.256319690991
0	6859	362.713723450128	-0.686889775088
0	6871	363.965418859574	-0.019664019756
0	6884	364.894167152508	0.006778105683
0	6894	365.535046201481	-0.002684859125
0	6907	366.355522767152	-1.552926549802
0	6926	368.539202618205	-0.548339348627
0	6940	369.474124472502	1.195144635463
0	6962	370.176816509213	0.997640464602
0	6968	370.501188909562	0.371215970189
0	6974	370.745754924503	-0.352969428345
0	7006	372.112422587713	0.58890879351
0	7027	373.746647471598	-0.274145482027
0	7061	375.841990324277	0.31195611096
0	7080	376.885484009953	-0.693461600393
0	7129	378.905719542419	1.04078152483
0	7134	379.026098701262	0.488089642137
0	7141	379.17357087195	1.145078409351
0	7160	379.939158564956	1.930400744977
0	7185	381.094831806989	-2.155997848118
0	7194	381.657641296212	5.380372500806
0	7204	382.208317628013	1.826583727951
0	7221	383.615377293686	0.010652080288
0	7224	383.711752786409	12.578568515566
0	7267	386.119052874809	-0.831312333799
0	7286	387.308709493197	2.902215858097
0	7296	389.037427828519	-0.384564063291
0	7308	390.33694828276	-1.086448143225
0	7318	391.685278973985	-0.168836365962
0	7336	392.956461765873	-0.200985085628
0	7360	394.240301456597	0.112382403965
0	7378	395.027062359056	-0.15447774174
0	7394	395.497337902085	-1.892914824809
0	7410	396.387363044335	1.639604232143
0	7422	397.18185715797	3.062012353938
0	7454	398.601327586482	0.638629435577
0	7463	398.9542079703	0.403401885641
0	7523	402.82907319498	7.480892646047
0	7540	403.328602221753	0.040445836848
0	7552	403.559625088391	0.730930021828
0	7555	403.584643116372	1.307618591622
0	7586	404.754777713418	0.221777094076
0	7589	404.791523393903	2.721590616556
0	7598	405.09741335102	1.69026652627
0	7614	405.67389626005	0.199942536919
0	7621	405.809222553279	0.84395930151
0	7626	406.107422035219	-0.341725057376
0	7631	406.142903844887	3.978188090259
0	7686	409.673514544113	0.666230753029
0	7694	409.766130364119	0.065970830803
0	7698	409.94899530997	1.944414781705
0	7706	410.890826527493	-0.42182190812
0	7721	411.849880279878	0.069392093873
0	7724	412.137648510746	-0.769197736514
0	7736	413.549203203216	-0.560554619634
0	7760	415.090056526184	0.299129817831
0	7784	416.111231613694	-1.895544395206
0	7796	416.595673405014	0.71146655895
0	7827	418.201027223936	2.191617184632
0	7859	419.549007067102	3.637725705057
0	7865	419.934574058523	-1.620874683742
0	7880	421.44744321997	2.751682037024
0	7901	422.547519388345	0.188243067388
0	7922	423.737881359369	-0.425871087112
0	7940	424.567231426678	-0.517014683312
0	7965	425.506757075788	0.197283013436
0	7976	425.668108552523	1.277430397253
0	7986	425.833364734207	0.501155662235
0	8001	426.411585284981	0.631901283432
0	8026	427.314600592829	4.298214453642
0	8033	427.428877754258	2.035073694442
0	8079	428.907194961926	3.286703595886
0	8085	429.171673127833	1.212786144485
0	8089	429.24360766486	0.372739802351
0	8108	429.790332915824	0.085647631075
0	8126	431.03499643324	1.653497263032
0	8157	431.819852713238	0.746379111619
0	8171	432.319990971713	10.355683410093
0	8191	433.036759698412	1.403998350003
0	8204	433.522676397927	1.980370020877
0	8214	433.642651306655	5.135161060548
0	8234	434.23276631954	2.716901895044
0	8239	434.336076037318	0.807201775618
0	8252	434.800051708054	-0.203214442914
0	8276	435.950978151648	-0.025051291747
0	8296	436.720598878156	0.023751620187
0	8301	436.814529517902	1.263505948286
0	8311	437.241723087729	-0.071732240383
0	8325	437.90127214881	-0.061676052224
0	8361	439.006861657167	-0.077992136649
0	8380	439.445437068039	-0.918907543618
0	8388	439.910897840875	6.189349603979
0	8402	440.505205983374	1.873435693466
0	8419	440.965632291159	0.256434388965
0	8429	441.719586740648	2.591589467209
0	8438	442.223544377564	1.682151146141
0	8517	445.710417689018	-0.032344429116
0	8536	446.307644188402	3.675871752525
0	8546	446.522487008797	3.046507268873
0	8550	446.594027741646	2.480365533827
0	8555	446.890984592925	-1.255700001366
0	8565	448.810726348004	-1.81866343691
0	8573	450.799024791252	-1.719301579378
0	8581	452.549152102034	-0.468702821379
0	8636	455.102224090648	0.505603200469
0	8653	455.597139576028	0.008932960266
0	8657	455.713912296966	1.669367666298
0	8699	458.298456040382	5.024460951378
0	8710	459.095032510621	1.593488381911
0	8749	460.59553753327	-0.478781763056
0	8806	462.596803406966	0.825819272227
0	8816	462.958370884956	2.958066377041
0	8834	463.483153535709	-0.144660472609
0	8837	463.593106248874	0.508423153742
0	8848	463.846338393761	1.911932963128
0	8863	464.398181437717	-1.110211677118
0	8874	465.233489754719	5.172617976321
0	8892	466.587605023688	7.012814706012
0	8903	467.30647835061	-1.521539542161
0	8909	467.797784544834	3.962857345175
0	8917	469.41323368302	-1.080311291678
0	8935	471.920844510117	-0.149179849012
0	8940	472.065295221492	0.403697334562
0	8963	473.065942403133	0.498398643851
0	8978	473.611894799109	1.797245532266
0	8981	473.770741895097	-0.688326089856
0	9001	475.032067734397	0.318208103353
0	9004	475.270255167401	-1.907825429388
0	9020	478.836768179823	-1.693699353648
0	9057	481.345876561691	0.297902412927
0	9067	481.634413960827	0.851957058817
0	9075	481.979935237446	0.968694138997
0	9078	481.982287883252	1.449407757279
0	9083	482.399121880423	-1.009395238049
0	9123	485.004887633885	1.169895094318
0	9128	485.177252218598	0.526408529534
0	9133	485.328202009102	-2.100399104961
0	9161	488.806563914997	-0.769713667865
0	9178	489.797545877474	1.543848278894
0	9192	490.634186399544	0.064916044252
0	9203	491.008501227794	-0.106145038263
0	9210	491.271679872417	0.395979144743
0	9221	491.52506355654	0.195489586979
0	9229	491.93134988875	-0.248740272361
0	9252	493.570540429116	0.159785120903
0	9262	494.059561916715	-0.371242825763
0	9277	494.582486331862	0.091245457905
0	9291	494.862606535199	0.431310284758
0	9302	495.196288049861	0.411736073591
0	9313	495.990030823169	1.288627613778
0	9322	496.596786935409	0.053357064611
0	9332	496.825061445577	0.127684937643
0	9353	497.903530643566	0.368547934672
0	9378	499.284561955673	0.769824691031
0	9390	499.541671590546	-2.126859487658
0	9395	499.743944350848	0.316043007368
0	9402	500.033079317824	0.581693405878
0	9421	502.515718420248	-0.937938856996
0	9424	502.62271739154	0.298965718642
0	9443	504.147104065398	0.144383076006
0	9464	504.948139911995	0.132825737276
0	9475	505.606760292655	1.50197505329
0	9503	507.379656464321	-0.13145178038
0	9506	507.43439149748	0.693547552077
0	9544	509.021059782348	1.089089868106
0	9582	510.270403875229	-1.683271609751
0	9596	510.767001012734	1.234296293631
0	9603	511.293455180018	2.963745395791
0	9606	511.322799516341	1.636755174421
0	9618	512.688016766986	-1.213823176103
0	9635	514.589447108949	0.092963581786
0	9651	515.18817052269	0.568739021806
0	9654	515.636016692837	-1.473246959297
0	9664	517.763472238566	-0.242739764807
0	9676	518.382360127147	0.002687199322
0	9701	519.315295634803	0.208417339782
0	9742	520.834579472341	0.515970530938
0	9762	521.483717079381	1.565516760065
0	9765	521.511214939441	0.507961056388
0	9779	522.17536126066	-0.320626670609
0	9828	524.336433919896	5.027589141698
0	9833	524.465759138053	1.157991962101
0	9843	525.024730873664	6.061794622126
0	9861	525.61947671126	2.590531456412
0	9906	527.559436597529	1.990990045059
0	9924	528.155221230813	2.278643106767
0	9933	528.438836894931	2.13782262248
0	9970	530.11365814457	2.383777513305
0	9978	530.376926075676	1.651327685947
0	10008	531.867663003342	-3.425811431564
0	10025	533.506834847728	7.980783548997
0	10030	533.570312948909	3.64645064378
0	10038	535.607502198478	-0.209935184251
0	10057	536.558924703802	0.387353163803
0	10060	536.771236046216	-0.15541144842
0	10082	537.728052396765	0.721381976019
0	10107	539.394759600263	-0.722498982892
0	10127	540.678805555724	1.857899417075
0	10139	541.174318183554	-0.503511277318
0	10166	542.271581847459	0.379943397951
0	10192	543.22805277994	2.625658639102
0	10209	543.835596694048	1.172727453203
0	10215	543.983537222644	-0.936282119935
0	10226	545.609276399718	-1.797671739389
0	10257	548.118317919996	0.241091390922
0	10303	549.924856880151	2.344368051123
0	10314	550.256663768724	2.514434986378
0	10317	550.265511422446	-0.180732872911
0	10327	550.615227385225	0.945906779706
0	10332	550.807017272384	3.012085526548
0	10358	552.033199949655	0.44174031349
0	10384	553.168246521448	-0.135551313888
0	10389	553.303189299106	0.747870121204
0	10400	553.726242710738	-1.660402533349
0	10427	555.747004218403	4.923596199834
0	10445	556.507970524776	-0.900187546957
0	10454	557.359563607453	1.115170279807
0	10475	559.148673307274	-1.250690678222
0	10490	560.783404517335	-0.766575911965
0	10493	561.344381619227	0.725006430394
0	10525	562.751540987428	0.836994651865
0	10529	562.919459074069	0.214266797057
0	10535	563.08692060572	-1.161702464982
0	10544	565.88449036633	-0.787472585271
0	10559	567.338159949529	0.305408405647
0	10565	567.766270991822	0.086152352893
0	10577	568.086042595527	0.173773250239
0	10627	569.807126018385	1.644734930975
0	10645	570.500447858447	0.886336276682
0	10656	570.803891488411	1.558275288048
0	10695	572.200797769081	1.162579602056
0	10699	572.280376973821	-2.284067353846
0	10705	572.482992116904	3.867979854483
0	10708	572.848591388021	1.58945068707
0	10729	575.324946889696	-0.071891857265
0	10742	575.910268768643	1.036516594483
0	10765	576.85652957301	0.871051619783
0	10790	577.93781261021	-1.291486196209
0	10793	577.992747568769	0.745490363244
0	10822	580.135455096294	0.686712399934
0	10827	580.222933699327	-0.958251250927
0	10834	580.917954456907	1.575606336079
0	10888	583.224017684354	1.092223910832
0	10893	583.311000287441	1.114683517671
0	10910	584.0180257786	-0.274144289632
0	10933	584.894121307627	3.370459618289
0	10947	585.239416118166	0.243989334864
0	10978	587.865962020776	-4.834381195906
0	10995	589.89814987589	5.431207926756
0	11013	593.412883911226	0.146028583346
0	11041	594.597268602775	-0.384708877343
0	11048	594.964297433407	1.388886352253
0	11056	595.481567857634	-1.793115748286
0	11096	598.977406758703	0.833592850441
0	11102	599.106540124783	1.699920305568
0	11105	599.177622953112	-0.049899999253
0	11121	600.659532240076	-0.431118816636
0	11131	601.46740997808	-0.136801560834
0	11143	602.09046456169	-0.841263460337
0	11165	603.401457388451	0.440406778198
0	11210	604.762685696958	0.496660979045
0	11217	604.89122061016	0.532692063429
0	11230	605.289609455515	2.093836004657
0	11243	605.914667936482	1.285085761125
0	11268	607.051638411	0.367940727156
0	11276	607.287959859068	0.595158967162
0	11303	609.107746738426	4.711812284778
0	11309	609.139929578577	0.042936483296
0	11341	610.125424199433	0.782820143396
0	11348	610.235134983196	0.920557767263
0	11369	610.849982197266	0.602195867818
0	11377	611.152247083298	2.014779486873
0	11382	611.378732288066	-0.693252302749
0	11398	612.107938523194	-0.513136339604
0	11415	613.144013465286	3.681962282387
0	11422	613.359920125724	-0.340412863526
0	11454	615.18379220067	-0.501301804271
0	11486	616.987228859167	0.042729248049
0	11522	618.792348544738	0.621172935099
0	11541	619.53051835566	0.440800509832
0	11582	621.228782791038	6.923394551291
0	11585	621.259667308135	-1.537811200121
0	11588	621.342557938098	0.425875928752
0	11591	621.895271524276	2.676123459136
0	11600	622.963023600077	-4.763141874442
0	11625	628.487420566864	0.373100093411
0	11634	629.046226422671	0.868435821085
0	11654	629.776196984216	-0.476055239701
0	11688	631.137584458046	0.301774813162
0	11695	631.526445216006	0.968103367259
0	11706	632.149257026404	-0.593715575988
0	11712	632.337781075739	3.229236359262
0	11739	633.547931979433	0.66731496397
0	11748	633.762294849511	-0.831103736401
0	11753	633.885878175323	0.46272864592
0	11771	635.166255459475	0.293568320329
0	11785	636.059053960181	0.236047011652
0	11796	636.358278657962	-2.978113934343
0	11801	636.523897485012	0.319893171035
0	11818	639.918339622541	-0.025671546904
0	11825	640.076590958429	0.727632504695
0	11850	641.274367591406	0.07466474478
0	11861	641.986775262211	1.025547337731
0	11876	642.955230479394	-0.631083930102
0	11889	644.422199987051	-0.294306398064
0	11918	645.566373112135	-0.397542150051
0	11930	645.845544678927	0.55430622471
0	11933	645.903455468522	1.100358738655
0	11960	647.360977247259	0.69636696746
0	11977	648.496697521316	1.888520456544
0	11982	649.106314256341	-0.588846504433
0	11991	649.852779003823	-0.764139058052
0	12016	650.9726138649	0.329554956524
0	12024	651.16709476292	0.216976601704
0	12058	652.538261190679	0.566544054737
0	12070	652.861943688322	0.228382534242
0	12123	654.881035158715	1.769468237432
0	12135	655.287490349803	2.039180255773
0	12152	656.08442127437	-2.720666185321
0	12158	656.35342067052	5.12663517416
0	12166	656.834696195729	6.006535079388
0	12169	657.402236030941	6.784719976465
0	12215	660.889020697914	-1.431223492657
0	12221	661.016150692538	1.345769837538
0	12224	661.53296707407	1.413331641028
0	12262	663.277559523672	0.802661713793
0	12265	663.294798417679	-0.119948559036
0	12282	663.746084374981	1.003137423531
0	12305	664.707625511688	2.059754808238
0	12360	667.518154547232	-0.879364849553
0	12364	667.62028687933	1.02109498981
0	12372	668.192643576887	1.277636582832
0	12398	669.770995143738	7.180763606551
0	12402	669.937628301501	3.451259388372
0	12448	672.005021123125	0.685153821926
0	12460	672.3666823295	2.384160743452
0	12470	672.738021487276	-0.007336479158
0	12494	673.830451917007	-1.466766930772
0	12504	674.239677951	0.975281924981
0	12530	675.723466820083	3.744919183321
0	12539	675.980092058217	0.284362280598
0	12547	676.5974463772	-0.020606320848
0	12555	676.891756324767	-0.000702768168
0	12563	677.045466934917	-3.28834517432
0	12576	681.26476431407	-1.199280721005
0	12605	684.443274576251	1.648952151082
0	12614	684.685410974896	-0.08050205215
0	12622	685.3658657755	0.85321790938
0	12643	686.499320448353	-0.401804279907
0	12657	687.279525034424	1.616759360976
0	12712	689.336136804141	0.409631919952