version 2
run General-1-20150921-14:48:17-7227
attr configname General
attr datetime 20150921-14:48:17
attr experiment General
attr inifile omnetpp.ini
attr iterationvars $0=42653
attr iterationvars2 "$0=42653, $repetition=0"
attr measurement $0=42653
attr network CloudDataCenterTS
attr processid 7227
attr repetition 0
attr replication #0
attr resultdir results
attr runnumber 1
attr seedset 1

vector 0  CloudDataCenterTS.sink  responseTime_0  ETV
vector 1  CloudDataCenterTS.sink  delayTime_0  ETV
vector 2  CloudDataCenterTS.sink  queuingTime_0  ETV
vector 3  CloudDataCenterTS.sink  serviceTime_0  ETV
0	29	1.688218945863	0.163227542119
0	55	3.144937787988	-0.902022082861
0	68	4.06195654985	1.706064327783
0	77	4.839012309185	-0.142290932261
0	98	5.86022797238	-2.422339546224
0	115	6.999990622002	1.700844155333
0	149	9.959490648307	0.415014714297
0	167	10.435572230558	-0.564356588961
0	172	10.510559797915	0.450782235873
0	191	11.44423628277	2.577167050741
0	250	14.537295208151	4.543834466027
0	257	14.846771978803	-1.358703188335
0	275	16.023683228963	3.41501551235
0	282	16.365146841076	3.620371356165
0	291	17.216258759161	-0.44181827538
0	312	19.03621661602	0.013257204888
0	335	20.558239970183	0.38757562705
0	351	21.21683798958	-0.372311278087
0	367	22.192171704921	1.882250649338
0	378	22.390945956022	0.31978754015
0	388	22.770505903721	-0.034409646842
0	401	23.026142257997	0.090476482872
0	409	23.365687618778	-0.435221001506
0	431	24.355372959964	2.098631590265
0	448	25.147818170706	1.120611811555
0	465	26.466770082352	-0.150559795948
0	481	27.303144898895	0.147843551459
0	510	28.778348380258	1.011862763558
0	526	29.101114081554	0.176923784643
0	542	29.573241737889	-0.317629782401
0	558	30.480232516036	-0.170624018428
0	569	30.887044972475	2.13153813498
0	601	32.082224752623	4.40984423912
0	623	32.868717823957	3.820301707461
0	642	33.617208830418	1.056979473087
0	667	34.439957153828	2.786945117375
0	684	34.832632518221	1.319534717306
0	689	34.972720317531	0.978064307242
0	694	35.051389084618	0.433232659768
0	715	35.743139231998	0.163717829714
0	724	36.115592121547	1.868686803627
0	727	36.446517171221	4.890376732108
0	730	36.672570906695	-0.262822295534
0	750	37.733866737813	0.372162853031
0	780	39.555914748153	0.556373836016
0	784	39.657257724362	2.307851960167
0	828	42.904983653808	-1.141304708912
0	850	44.54026734233	1.755393958328
0	862	44.726983027154	2.511212579908
0	877	45.095126828932	2.258659211149
0	880	45.228978358003	0.542848356523
0	887	45.464102923111	0.187891265704
0	897	45.793524695865	-2.080638420293
0	905	46.332540049681	1.761661136981
0	924	47.970174084438	2.349531573056
0	940	49.174668067422	0.239234376906
0	946	49.573665748943	-1.164684411829
0	977	52.442611604339	-1.248695668997
0	991	53.684955138712	2.279921922538
0	1004	54.215189214222	-1.860448394922
0	1037	57.245304896829	-0.623145254454
0	1042	57.399681016532	1.188385089587
0	1059	58.144629501056	-0.630253704758
0	1066	58.483820483255	2.399722198514
0	1069	58.5898689748	0.539303428807
0	1081	59.191852974401	-1.172197196584
0	1143	62.600042676809	1.810235655448
0	1173	63.838034499626	3.331476973034
0	1176	63.863856137928	1.292110020563
0	1180	63.928855173394	2.575317212365
0	1211	65.669881744844	0.565417794148
0	1214	65.701099530491	3.893652143533
0	1266	69.52303795205	0.959868076434
0	1280	70.083000051976	-1.192087647001
0	1290	70.637252668145	1.756364672583
0	1304	71.41459448102	2.056056238504
0	1320	72.039134632229	10.943015546457
0	1339	72.799900707176	0.125203409753
0	1345	73.233268656697	8.662166330706
0	1362	74.190439313845	-2.267230901192
0	1374	74.680035350974	1.035286657829
0	1393	76.762763023335	5.149510366192
0	1408	77.478940414033	0.569190480562
0	1413	77.495258105365	-0.253654420471
0	1431	78.449660075297	0.129132605394
0	1438	78.729005616636	-0.562910032057
0	1476	80.572946960845	0.845759194222
0	1479	80.579031275082	0.250186156748
0	1497	81.38863170251	0.300286958845
0	1514	81.867277531249	0.056636000402
0	1522	82.260888017006	2.029735287317
0	1549	83.346923877191	0.234756816567
0	1555	83.491731951386	-1.662205702661
0	1595	85.696316900146	2.932566922456
0	1598	86.043240612827	-1.205208786089
0	1601	86.910495978485	1.664469771071
0	1637	88.791696863571	0.755126911799
0	1640	88.821988994215	0.880470421708
0	1661	89.661152502453	1.233671460332
0	1670	90.131801574702	-4.384530935362
0	1713	97.031576162095	0.400084091256
0	1725	97.630131914004	0.674762083841
0	1730	97.857208132516	1.066123044047
0	1760	99.179819140702	-0.41867230479
0	1766	99.56622178171	0.91531595362
0	1774	99.694715047289	0.566806628876
0	1789	101.216805976759	-2.026547623657
0	1815	104.265712027748	0.47848926267
0	1821	104.608827470872	-2.564081123883
0	1838	106.3195824859	2.485638423858
0	1854	107.675295470581	0.266290497577
0	1869	108.104481751965	-0.953812976325
0	1901	109.980986857804	-0.112406890878
0	1921	110.466571069356	0.745758351079
0	1933	110.961184124821	0.290626843181
0	1936	110.992100926203	0.881881254143
0	1952	111.507517195667	3.696884684196
0	1988	112.621155004066	0.725881485254
0	2001	113.038604609892	0.490330174317
0	2057	115.646462992564	3.722068349572
0	2066	115.854850027085	2.531744318498
0	2069	115.865609480396	-1.848715827385
0	2075	116.759105124309	5.707256451448
0	2099	118.967386049882	0.396414005314
0	2109	119.790115882919	-0.578310932389
0	2141	122.075938121803	-0.198477575789
0	2165	122.856675181652	0.370287367984
0	2197	124.038650025869	0.119276180373
0	2205	124.252683504211	2.705449854678
0	2215	124.760940672069	-2.32146398591
0	2226	125.571660966541	2.863099810955
0	2234	127.180577807848	-0.165983736861
0	2268	128.26020347059	0.861376799977
0	2275	128.574875886253	-2.532278751757
0	2292	130.173907812697	2.438778327129
0	2312	131.897931647443	-1.122918075558
0	2318	131.91391625574	0.62859065593
0	2331	133.788331747225	-0.256302630762
0	2350	135.308788074982	0.246833705676
0	2371	137.582633070297	0.477822686786
0	2374	137.628309715657	-0.047037685308
0	2396	138.780413087493	-0.006884733325
0	2429	141.036261373646	-1.142440942485
0	2445	142.231287228077	3.57682583686
0	2468	143.528099006362	3.462456075517
0	2477	143.784887660713	0.807433608947
0	2488	144.137535661693	0.500050704076
0	2491	144.19942212678	-1.292801947629
0	2562	148.637667785693	1.197057748463
0	2579	149.554417292976	3.378626480562
0	2607	150.672334564065	3.948403600214
0	2611	150.731400558539	3.789022950384
0	2617	150.8085436569	4.817565836348
0	2625	150.997998287473	0.716002262969
0	2651	151.990087089828	0.894969408869
0	2666	152.653341941335	2.197760769049
0	2669	152.726500442786	-0.401236287023
0	2673	152.843113019128	5.666159294535
0	2702	154.213271786666	3.907877791489
0	2710	154.325722244137	3.448332243472
0	2720	154.492160963933	0.708752775664
0	2731	154.889690228625	-1.172342258972
0	2751	155.659515052861	1.249219627909
0	2754	155.972015514391	2.015572029365
0	2761	156.190981896895	4.300457125507
0	2775	156.425141534474	0.222280853532
0	2782	156.785567337219	-2.075872258241
0	2788	157.216388985866	0.893521743979
0	2812	160.419202424298	-1.785588648731
0	2818	160.515061811951	0.416713503513
0	2838	163.657853676081	0.208077783516
0	2862	164.776307715135	0.324947987394
0	2865	164.779114148948	0.538944685537
0	2872	165.035062200215	0.277125750833
0	2877	165.284500670406	-1.860738442944
0	2886	165.826613484812	1.127278613737
0	2927	169.411492430193	0.177045804175
0	2951	170.565327436547	1.809097679164
0	2957	170.71521534689	1.661166696449
0	2978	171.770267476648	1.937493876034
0	2993	172.426334644999	0.827993653092
0	3005	172.951998636143	1.72511452429
0	3008	173.044405444635	0.899513092971
0	3011	173.605906211523	-1.222966748066
0	3047	176.801604070468	0.841217814866
0	3069	177.692107111258	0.835803576626
0	3072	177.726811000935	0.25001638224
0	3075	177.959884791606	-1.218001355375
0	3083	180.287776066555	-0.225928314811
0	3128	182.346278623851	1.448692011653
0	3174	183.81796641217	0.552737279821
0	3202	184.540790071776	1.693023814613
0	3220	185.010663802002	1.052847807279
0	3235	185.559388247912	1.393178512294
0	3251	186.138564601288	3.287147654937
0	3261	186.41048683298	2.336948624709
0	3271	187.075702344083	-0.764396734298
0	3306	188.711568935595	4.943232900255
0	3312	188.801430097716	0.119701003883
0	3342	189.621183515626	-1.139738753468
0	3348	189.812077749124	7.550029100084
0	3366	190.471364532014	0.874275335836
0	3371	190.573367135857	1.568273527411
0	3395	191.406287816066	2.163350789898
0	3419	191.897809067324	3.580744567599
0	3428	192.188164988338	0.338360102448
0	3475	194.023096251952	9.098963843781
0	3492	194.42184661369	2.974743028803
0	3501	194.606350933205	1.243842280128
0	3518	195.058296238452	-0.556899947131
0	3531	195.463205124462	0.938349249241
0	3540	195.655705636133	0.847205735068
0	3548	195.864890073344	4.274746626767
0	3551	195.894541680154	3.041338114548
0	3575	196.709494339444	0.21913778669
0	3587	197.433595444024	1.495334071902
0	3606	197.995637951385	-1.252843882221
0	3609	198.216992086471	0.691868284743
0	3612	198.426079086819	4.330053935936
0	3675	201.686781675501	2.008173653135
0	3681	201.804080147416	1.484664865988
0	3702	202.331162036894	-0.575379021416
0	3719	202.820000515136	0.710644038252
0	3729	202.926040182789	0.993499403212
0	3732	202.964825111355	2.592734720876
0	3741	203.366567989507	-1.5434486593
0	3744	203.419404020826	2.839034755588
0	3761	205.525380283458	-1.915361458058
0	3773	206.454207875041	1.34666988143
0	3790	208.23886376849	-0.649454037203
0	3819	210.189638521039	0.730781801504
0	3833	210.579078336926	0.790415454742
0	3846	211.039110836432	-0.164936546428
0	3869	212.539075072171	-0.042735887737
0	3883	213.085238100872	-0.138618713556
0	3892	213.236922324233	2.966395526065
0	3923	214.102357952512	0.446090327691
0	3931	214.279906382533	-2.550559597631
0	3939	214.62038351905	0.609464079477
0	3945	215.0165824867	1.652968645318
0	3959	217.22545669802	-0.436090739056
0	4012	220.49886335007	3.543669230626
0	4037	221.327100012208	-0.946278647261
0	4040	221.347328775126	1.513166550593
0	4043	221.670749616261	1.284343602962
0	4059	223.380292428892	-1.002568907295
0	4106	225.825694736235	0.865957209311
0	4126	226.582144951648	-1.893942962335
0	4152	227.556133370609	2.239022988667
0	4155	227.569352617843	2.227544345514
0	4165	227.69540107663	2.106575634498
0	4172	228.011351602119	2.413693167229
0	4200	230.023844962438	-0.83724524471
0	4203	230.720568892003	1.614457905517
0	4239	232.085433024202	-1.315241702918
0	4261	233.338202358134	1.613123854931
0	4323	236.193005500381	2.245633890779
0	4335	236.677885256833	0.245969637117
0	4352	237.149228514489	-0.772229311868
0	4368	237.907590484057	4.417616383102
0	4379	238.167997138448	-2.627846373323
0	4382	238.169888050755	1.468576886863
0	4395	239.36480758346	8.411420672609
0	4402	240.962648295755	9.083185027917
0	4417	241.505906261995	0.181970824212
0	4432	242.068459414749	0.72970702138
0	4435	242.23857737899	-0.780151437541
0	4453	244.076459629954	-1.326538622584
0	4472	246.51706732543	-1.564147482928
0	4506	248.662637146635	0.291147269269
0	4514	248.839812929892	-1.178264887746
0	4520	249.00129820531	0.868249771817
0	4527	249.220574858545	2.972024818731
0	4541	250.331653510125	-0.644988468244
0	4549	250.833760737555	0.80152670852
0	4557	251.081330809913	-0.156557242066
0	4567	251.942966183968	-0.075997550909
0	4588	252.447367787388	0.301975907252
0	4602	253.792489862077	1.039277698786
0	4610	254.103599132388	0.483153542437
0	4621	254.429883360571	-0.086019140109
0	4670	256.951667909814	-0.186750032802
0	4677	257.071923613813	0.953179905732
0	4708	258.402637376304	1.677344568426
0	4725	258.697284068275	0.182821142019
0	4739	259.111238341012	-0.446554056724
0	4744	259.333022778391	0.752813360696
0	4750	259.47809646738	5.435621682884
0	4783	261.32905798237	0.866825606481
0	4803	262.013351954015	0.275917263158
0	4828	262.797394343522	-0.450800219943
0	4831	262.859137725978	1.741365534361
0	4877	264.717644427068	2.675698229384
0	4908	266.141940720998	1.506261280348
0	4926	266.687345677414	0.533169776883
0	4944	267.337972412043	3.23884767365
0	4971	268.261135863297	4.204400468853
0	5016	269.684672095744	0.605351663367
0	5058	271.008923756649	0.647356592536
0	5067	271.301220408806	1.377520470474
0	5075	271.502896479935	7.852276004132
0	5078	271.534285184558	2.82931759089
0	5085	271.622829237277	0.080495300187
0	5105	272.69223440571	0.25233143687
0	5118	273.002482538003	0.133715330288
0	5178	275.133400640372	8.546434337969
0	5193	275.506903292372	2.040790711484
0	5215	276.221647144483	1.407524279201
0	5227	276.561667936755	2.464614397475
0	5258	277.737005311902	2.294738652673
0	5277	278.184754031357	0.722323074755
0	5286	278.642041685927	4.218217190481
0	5302	279.171095340799	0.240342121765
0	5309	279.404382507606	6.182670139231
0	5331	280.191270822164	0.592224619926
0	5353	280.965984266346	5.321179362641
0	5359	281.146656090078	0.547354609624
0	5377	281.910813869978	-0.594345658799
0	5383	282.063414789297	0.392230000787
0	5387	282.189634017737	12.505168973525
0	5392	282.457998021673	2.007460252307
0	5417	284.698630721765	6.85017911297
0	5432	285.662967096158	-2.837037961192
0	5448	287.197505813993	18.376403567461
0	5478	289.377597899331	-2.624226239385
0	5486	289.683665541587	4.275721537466
0	5514	292.096940134872	13.038933114379
0	5525	292.952454873581	0.14328302217
0	5541	293.539259631027	0.511616885993
0	5562	294.236558661167	-0.263181174104
0	5590	295.350191192765	1.312768409431
0	5595	295.504120842673	-0.9663010357
0	5612	296.493448678787	2.742982839024
0	5622	296.903356226887	0.098480169169
0	5633	297.482880678826	-1.349238961956
0	5649	299.838113052391	-0.243816134871
0	5666	300.622873898833	-1.603402355904
0	5696	302.786541005467	-1.525508705579
0	5699	303.627608475689	3.185863543198
0	5724	305.443788591534	-0.046542069566
0	5744	306.694560280879	-0.008474321542
0	5752	306.76569843198	1.92189702257
0	5778	308.448060619858	1.065335381453
0	5796	309.180421958329	-0.335443031112
0	5804	309.461796255881	0.963342744922
0	5830	310.865422586294	0.334573206638
0	5856	311.901369516916	1.08396642281
0	5898	313.448808881925	-0.901543502854
0	5903	313.475936186436	2.35949853111
0	5910	313.661548542133	1.630774888517
0	5917	313.922072593402	1.898422751641
0	5920	314.081966373611	2.028842833024
0	5938	315.024714002342	0.045638712092
0	5951	315.60376071336	0.602533143447
0	5960	316.143524173248	-0.987364634127
0	5976	317.610082140462	-0.87195913322
0	6011	319.495344777915	0.238660267471
0	6039	320.646201484874	0.692451865289
0	6046	320.88285533094	-1.746781794178
0	6052	321.075119483411	3.649741332843
0	6083	323.749310866227	0.887847361402
0	6190	327.948673671769	4.261665549724
0	6206	328.530231467764	3.212703481766
0	6218	328.835703359028	2.353606751902
0	6222	328.892513531487	2.291766691406
0	6233	329.45399094687	-1.400511570386
0	6243	329.987385350094	4.685171425452
0	6248	330.167971618285	4.327535842374
0	6258	330.985486703441	4.476811466268
0	6287	332.678775239294	0.202400619901
0	6293	332.865730267144	0.945602787176
0	6316	333.985621279316	1.033917068274
0	6338	335.437613327609	-0.346583169372
0	6341	335.550068950534	0.633922239136
0	6378	337.660354244501	-0.43889455125
0	6416	339.680828512661	0.450700215114
0	6437	341.058694161656	-2.304797223482
0	6449	341.951108577672	5.700507017398
0	6478	343.681126753957	0.206566844463
0	6489	343.964883393709	0.317437465682
0	6505	344.411715500269	4.154133231554
0	6526	345.234335015057	6.705788243457
0	6552	346.235485809445	-0.08357589866
0	6556	346.262274977974	0.725867094622
0	6565	346.33077590073	2.107520153035
0	6577	346.86117436082	-0.43177904332
0	6591	347.741939219877	-0.435028550231
0	6633	349.656464120562	-1.490532989983
0	6653	350.383583402639	5.379348026299
0	6659	350.473275550509	1.223280762527
0	6670	351.177145608147	7.274934487858
0	6691	351.822010193062	0.619378548734
0	6717	353.001576759376	0.0076282301
0	6744	353.956022605456	0.097648431755
0	6765	354.62755390974	2.845569940146
0	6780	355.215663608233	0.604702639542
0	6802	355.883054007351	0.329620008718
0	6808	356.074868025701	2.893986538835
0	6863	358.773602309868	-0.279611939257
0	6885	359.835732161676	-0.198703115263
0	6899	360.32151067749	-0.739396626916
0	6927	362.308903910618	8.102684973078
0	6934	362.660088732215	-0.740524493001
0	6952	364.037783317287	0.052700437957
0	6962	364.894167152508	0.006778105683
0	6972	365.535046201481	-0.002684859125
0	6985	366.355522767152	-1.552926549802
0	7004	368.539202618205	-0.548339348627
0	7018	369.474124472502	1.195144635463
0	7040	370.176816509213	0.997640464602
0	7046	370.501188909562	0.371215970189
0	7052	370.745754924503	-0.352969428345
0	7080	372.05160432462	0.528090530417
0	7102	373.746647471598	-0.274145482027
0	7129	375.421714007973	-0.108320205344
0	7154	376.745126652751	-0.833818957595
0	7202	378.758138543492	0.220129484367
0	7209	378.905719542419	1.04078152483
0	7219	379.17357087195	1.145078409351
0	7230	379.460492284796	1.451734464817
0	7259	380.930270751545	-2.320558903562
0	7269	381.657641296212	5.380372500806
0	7279	382.208317628013	1.826583727951
0	7296	383.615377293686	0.010652080288
0	7300	383.711752786409	12.578568515566
0	7349	386.119052874809	-0.831312333799
0	7352	386.495733189536	2.089239554436
0	7368	388.996522292982	-0.425469598828
0	7380	390.33694828276	-1.086448143225
0	7390	391.685278973985	-0.168836365962
0	7408	392.956461765873	-0.200985085628
0	7432	394.240301456597	0.112382403965
0	7450	395.027062359056	-0.15447774174
0	7466	395.497337902085	-1.892914824809
0	7479	396.387363044335	1.639604232143
0	7491	397.18185715797	3.062012353938
0	7526	398.601327586482	0.638629435577
0	7530	398.725398011979	0.17459192732
0	7594	402.82907319498	7.480892646047
0	7613	403.315849939689	0.487154873126
0	7616	403.328602221753	0.040445836848
0	7628	403.584643116372	1.307618591622
0	7657	404.598763987865	1.191617163115
0	7664	404.754777713418	0.221777094076
0	7669	404.779147333195	2.614431578567
0	7672	404.791523393903	2.721590616556
0	7684	405.132161201299	0.16689794953
0	7697	405.67389626005	0.199942536919
0	7700	405.833843647105	-0.61530344549
0	7742	408.975015832905	0.97043530464
0	7754	409.288375925072	0.281092133988
0	7760	409.384511931084	-0.315647602232
0	7772	410.616057221145	-0.696591214468
0	7785	411.725903700433	-0.054584485572
0	7793	412.137648510746	-0.769197736514
0	7808	413.400966982611	-0.708790840239
0	7828	414.975451676604	0.184524968251
0	7852	416.079193398093	0.194986552029
0	7858	416.111231613694	-1.895544395206
0	7889	417.56415061848	1.554740579176
0	7935	419.549007067102	3.637725705057
0	7942	419.934574058523	-1.620874683742
0	7955	420.953324526619	2.257563343673
0	7978	422.547519388345	0.188243067388
0	8002	423.737881359369	-0.425871087112
0	8022	424.567231426678	-0.517014683312
0	8042	425.31117810502	0.92049994975
0	8045	425.325458041876	0.015983979524
0	8073	425.833364734207	0.501155662235
0	8080	425.974223541935	2.957837402748
0	8086	426.116289966797	0.336605965248
0	8103	426.739516196405	1.345712136589
0	8153	428.636414489634	6.672106928014
0	8168	428.907194961926	3.286703595886
0	8173	429.171673127833	1.212786144485
0	8177	429.24360766486	0.372739802351
0	8197	429.790332915824	0.085647631075
0	8206	430.199463579538	0.81796440933
0	8224	431.184319859536	0.110846257917
0	8231	431.365298104308	2.857807858201
0	8272	432.781976203202	1.239669826152
0	8281	433.036759698412	1.403998350003
0	8286	433.247227857828	-0.281646403872
0	8311	434.23276631954	2.716901895044
0	8322	434.637639225994	-0.365626924974
0	8348	435.950978151648	-0.025051291747
0	8368	436.720598878156	0.023751620187
0	8373	436.814529517902	1.263505948286
0	8383	437.241723087729	-0.071732240383
0	8397	437.90127214881	-0.061676052224
0	8428	439.006861657167	-0.077992136649
0	8447	439.445437068039	-0.918907543618
0	8455	439.910897840875	6.189349603979
0	8464	440.319005975038	1.68723568513
0	8485	440.965632291159	0.256434388965
0	8495	441.633386732312	2.505389458873
0	8503	442.037344369228	1.495951137805
0	8584	445.710417689018	-0.032344429116
0	8599	446.121444180066	3.489671744189
0	8613	446.50782773331	2.394165525491
0	8616	446.522487008797	3.046507268873
0	8621	446.804784584589	-1.341900009702
0	8631	448.810726348004	-1.81866343691
0	8639	450.799024791252	-1.719301579378
0	8647	452.549152102034	-0.468702821379
0	8702	455.102224090648	0.505603200469
0	8719	455.597139576028	0.008932960266
0	8723	455.713912296966	1.669367666298
0	8765	458.298456040382	5.024460951378
0	8776	459.095032510621	1.593488381911
0	8814	460.59553753327	-0.478781763056
0	8864	462.265968640898	0.494984506159
0	8881	462.958370884956	2.958066377041
0	8895	463.232355442366	0.147672347234
0	8905	463.483153535709	-0.144660472609
0	8913	463.694188908401	3.633317130003
0	8920	463.846338393761	1.911932963128
0	8931	464.135816038377	4.561025720701
0	8941	464.398181437717	-1.110211677118
0	8953	465.365690964651	1.530763764992
0	8966	466.116781314218	-2.711236578553
0	8974	469.41323368302	-1.080311291678
0	8985	471.702583626079	0.040985739149
0	8995	471.896337915516	-0.173686443613
0	9021	473.065942403133	0.498398643851
0	9033	473.493080786833	-0.96598719812
0	9038	473.611894799109	1.797245532266
0	9055	475.032067734397	0.318208103353
0	9058	475.270255167401	-1.907825429388
0	9074	478.836768179823	-1.693699353648
0	9111	481.345876561691	0.297902412927
0	9120	481.634413960827	0.851957058817
0	9132	482.414775548637	1.403534450188
0	9137	482.807833988186	2.274953862213
0	9140	482.959718184507	-0.448798933965
0	9175	485.004887633885	1.169895094318
0	9187	485.328202009102	-2.100399104961
0	9190	485.579930122306	0.929086433242
0	9215	488.806563914997	-0.769713667865
0	9248	491.028229306496	2.774531707916
0	9257	491.271679872417	0.395979144743
0	9262	491.306864163297	0.19221789724
0	9275	491.52506355654	0.195489586979
0	9278	491.609044872698	1.039774517406
0	9286	492.153284485857	-0.026805675254
0	9309	493.570540429116	0.159785120903
0	9319	494.254203899265	-0.176600843213
0	9334	494.627843356287	0.13660248233
0	9348	494.862606535199	0.431310284758
0	9360	495.344753502001	0.560201525731
0	9370	495.990030823169	1.288627613778
0	9379	496.596786935409	0.053357064611
0	9390	496.90955091801	0.212174410076
0	9409	497.903530643566	0.368547934672
0	9443	499.541671590546	-2.126859487658
0	9448	499.743944350848	0.316043007368
0	9451	499.809435729706	1.294698465064
0	9459	500.214632710126	0.76324679818
0	9475	502.515718420248	-0.937938856996
0	9478	502.62271739154	0.298965718642
0	9497	504.355138101843	0.352417112451
0	9519	505.201146313783	0.385832139064
0	9526	505.606760292655	1.50197505329
0	9554	507.43439149748	0.693547552077
0	9560	507.571300219995	0.060191975294
0	9593	509.021059782348	1.089089868106
0	9622	510.106615131395	-1.847060353585
0	9634	510.488612929476	0.955908210373
0	9657	512.340048396969	2.654004055049
0	9663	512.786829339088	4.457119554861
0	9666	512.853305025116	-1.048534917973
0	9690	514.640738439627	0.144254912464
0	9702	515.18817052269	0.568739021806
0	9705	515.940992250422	-1.168271401712
0	9715	517.763472238566	-0.242739764807
0	9728	518.495204564278	0.115531636453
0	9753	519.421003449782	0.314125154761
0	9788	520.834579472341	0.515970530938
0	9821	522.171925987813	1.16867210476
0	9824	522.17536126066	-0.320626670609
0	9834	522.526178769735	2.607978450419
0	9866	523.772767159254	4.463922381056
0	9876	524.072248096298	0.764480920346
0	9883	524.402226354461	5.439290102923
0	9903	525.61947671126	2.590531456412
0	9948	527.559436597529	1.990990045059
0	9966	528.155221230813	2.278643106767
0	9975	528.438836894931	2.13782262248
0	10012	530.11365814457	2.383777513305
0	10020	530.376926075676	1.651327685947
0	10050	531.867663003342	-3.425811431564
0	10067	533.506834847728	7.980783548997
0	10072	533.570312948909	3.64645064378
0	10080	535.607502198478	-0.209935184251
0	10099	536.558924703802	0.387353163803
0	10102	536.771236046216	-0.15541144842
0	10128	537.829273949374	0.822603528628
0	10155	539.394759600263	-0.722498982892
0	10175	540.678805555724	1.857899417075
0	10187	541.174318183554	-0.503511277318
0	10211	542.366922868633	0.475284419125
0	10245	543.835596694048	1.172727453203
0	10250	544.130335080858	3.52794094002
0	10263	544.722464856373	-0.197354486206
0	10274	545.816113516859	-1.590834622248
0	10308	548.149666647286	0.272440118212
0	10370	550.940229502462	3.359740673434
0	10373	550.978551762219	0.532307466862
0	10385	551.466236599994	3.724007817648
0	10393	551.697038012366	3.90210626653
0	10400	552.097711159059	2.42839055354
0	10406	552.501072123618	0.909612487453
0	10429	553.352124724511	0.048326889175
0	10442	553.902523701659	-1.484121542428
0	10446	554.016803598823	1.461484420921
0	10494	556.761856603331	-0.646301468402
0	10509	557.413487142603	6.590079124034
0	10517	557.951439116462	1.707045788816
0	10532	559.701101950567	-0.698262034929
0	10550	560.832613315884	-0.717367113416
0	10553	561.52049675929	0.901121570457
0	10584	563.22093289562	0.515740618608
0	10592	563.45088292144	1.536336585877
0	10595	563.45694882791	-0.791674242792
0	10604	566.375250555018	-0.296712396583
0	10619	567.538019048906	0.505267505024
0	10630	567.986326826203	0.306208187274
0	10641	568.207819782506	0.295550437218
0	10697	570.895583020313	2.733191932903
0	10701	570.959472152352	1.345360570587
0	10733	572.138660492117	2.893044291754
0	10750	572.757165111474	-1.807279216193
0	10760	573.118463358486	1.859322657535
0	10768	573.452864087369	4.837851824948
0	10771	573.487356296217	2.449138129192
0	10796	575.460305304356	0.063466557395
0	10805	575.910268768643	1.036516594483
0	10826	576.85652957301	0.871051619783
0	10849	577.93781261021	-1.291486196209
0	10856	578.594928453431	1.347671247906
0	10882	580.135455096294	0.686712399934
0	10889	580.391024167199	-0.790160783055
0	10902	581.424551152052	2.082203031224
0	10947	583.311000287441	1.114683517671
0	10961	583.864124482858	1.732330709336
0	10991	584.894121307627	3.370459618289
0	10994	584.896335005377	0.604164937145
0	11014	585.612019323769	0.616592540467
0	11041	587.865962020776	-4.834381195906
0	11058	589.89814987589	5.431207926756
0	11081	593.626646119588	0.359790791708
0	11108	594.924416949183	-0.057560530935
0	11111	594.964297433407	1.388886352253
0	11119	595.481567857634	-1.793115748286
0	11154	598.977406758703	0.833592850441
0	11173	599.748504757268	0.520981804903
0	11180	599.886926279598	2.480306460383
0	11187	600.659532240076	-0.431118816636
0	11197	601.46740997808	-0.136801560834
0	11209	602.09046456169	-0.841263460337
0	11231	603.401457388451	0.440406778198
0	11276	604.762685696958	0.496660979045
0	11283	604.89122061016	0.532692063429
0	11296	605.289609455515	2.093836004657
0	11309	605.914667936482	1.285085761125
0	11334	607.051638411	0.367940727156
0	11342	607.287959859068	0.595158967162
0	11372	609.107746738426	4.711812284778
0	11378	609.139929578577	0.042936483296
0	11412	610.235134983196	0.920557767263
0	11419	610.303953530678	0.961349474641
0	11445	611.375878927859	1.128092598411
0	11448	611.378732288066	-0.693252302749
0	11456	611.898823279702	2.761355683277
0	11467	612.118724702906	-0.502350159892
0	11484	613.144013465286	3.681962282387
0	11491	613.359920125724	-0.340412863526
0	11520	615.18379220067	-0.501301804271
0	11553	617.453297620141	0.508798009023
0	11571	618.365921867749	0.19474625811
0	11602	619.979573965582	0.889856119754
0	11628	621.180516854569	-1.616961653687
0	11631	621.247836060019	2.028687994879
0	11642	622.07522542275	1.158543413404
0	11658	623.197508432626	-4.528657041893
0	11669	623.620986488193	9.315598248446
0	11691	628.487420566864	0.373100093411
0	11700	629.046226422671	0.868435821085
0	11720	629.776196984216	-0.476055239701
0	11754	631.137584458046	0.301774813162
0	11761	631.526445216006	0.968103367259
0	11772	632.149257026404	-0.593715575988
0	11778	632.337781075739	3.229236359262
0	11805	633.547931979433	0.66731496397
0	11814	633.762294849511	-0.831103736401
0	11819	633.885878175323	0.46272864592
0	11837	635.166255459475	0.293568320329
0	11851	636.059053960181	0.236047011652
0	11862	636.358278657962	-2.978113934343
0	11867	636.523897485012	0.319893171035
0	11884	639.918339622541	-0.025671546904
0	11891	640.076590958429	0.727632504695
0	11916	641.274367591406	0.07466474478
0	11927	641.986775262211	1.025547337731
0	11942	642.955230479394	-0.631083930102
0	11955	644.422199987051	-0.294306398064
0	11984	645.566373112135	-0.397542150051
0	11996	645.845544678927	0.55430622471
0	11999	645.903455468522	1.100358738655
0	12026	647.360977247259	0.69636696746
0	12043	648.496697521316	1.888520456544
0	12048	649.106314256341	-0.588846504433
0	12057	649.852779003823	-0.764139058052
0	12082	650.9726138649	0.329554956524
0	12090	651.16709476292	0.216976601704
0	12129	652.538261190679	0.566544054737
0	12142	652.915482484907	0.281921330827
0	12194	654.881035158715	1.769468237432
0	12204	655.241029146388	1.992719052358
0	12228	656.287717667072	-2.517369792619
0	12233	656.406959467105	5.180173970745
0	12241	656.888234992314	6.060073875973
0	12244	657.455774827526	6.83825877305
0	12287	660.889020697914	-1.431223492657
0	12294	661.016150692538	1.345769837538
0	12299	662.09174293979	1.972107506748
0	12342	663.45716468581	0.042417709095
0	12347	663.564754123601	1.089856313722
0	12353	663.746084374981	1.003137423531
0	12387	665.101326181794	2.453455478344
0	12438	667.518154547232	-0.879364849553
0	12442	667.62028687933	1.02109498981
0	12450	668.192643576887	1.277636582832
0	12476	669.770995143738	7.180763606551
0	12480	669.937628301501	3.451259388372
0	12526	672.005021123125	0.685153821926
0	12535	672.298163189912	2.315641603864
0	12547	672.738021487276	-0.007336479158
0	12573	673.830451917007	-1.466766930772
0	12578	673.985143624437	0.720747598418
0	12594	675.06893249352	3.090384856758
0	12609	675.774351592397	0.078621814778
0	12619	676.5974463772	-0.020606320848
0	12627	676.891756324767	-0.000702768168
0	12635	677.045466934917	-3.28834517432
0	12654	681.049929189879	-1.414115845196
0	12689	684.737239907528	-0.028673119518
0	12695	684.772432694655	0.259784828535
0	12700	685.037043438603	2.242721013434
0	12723	686.400005368073	-0.501119360187
0	12729	686.69946072503	1.036695051582
0	12791	689.052836065383	1.736172522626