file 3926742 1442429173                                         
version 2
run General-3-20150916-20:46:03-25765
attr configname General
attr datetime 20150916-20:46:03
attr experiment General
attr inifile omnetpp.ini
attr iterationvars $0=9632
attr iterationvars2 "$0=9632, $repetition=0"
attr measurement $0=9632
attr network CloudDataCenterTS
attr processid 25765
attr repetition 0
attr replication #0
attr resultdir results
attr runnumber 3
attr seedset 3

vector 0  CloudDataCenterTS.sink  responseTime_0  ETV
vector 1  CloudDataCenterTS.sink  delayTime_0  ETV
vector 2  CloudDataCenterTS.sink  queuingTime_0  ETV
vector 3  CloudDataCenterTS.sink  serviceTime_0  ETV
vector 4  CloudDataCenterTS.sink  responseTime_1  ETV
vector 5  CloudDataCenterTS.sink  delayTime_1  ETV
vector 6  CloudDataCenterTS.sink  queuingTime_1  ETV
vector 7  CloudDataCenterTS.sink  serviceTime_1  ETV
0	818 562723 25 401871 0.083997097051 10799.964900164112 13566 0.001959968984 16.014824914216 14032.722451497 32775.952641301
1	563541 493585 25 401871 0.083997097051 10799.964900164112 13566 7.36997e-06 1.07223 1351.8098075563 272.26305978697
2	1057126 422955 25 401871 0.083997097051 10799.964900164112 13566 0 10.34394611673 2370.7639237926 4646.8500951498
3	1480081 482793 25 401871 0.083997097051 10799.964900164112 13566 2.80769e-06 7.31253 9447.9972398626 13048.971374333
4	1962874 562730 28 401850 0.253061427269 10799.373894785808 13568 0.004493581585 28.162433037421 14307.57332207 35610.822891775
5	2525604 493841 28 401850 0.253061427269 10799.373894785808 13568 7.2456e-06 1.01784 1348.4519249865 269.55301365826
6	3019445 424746 28 401850 0.253061427269 10799.373894785808 13568 0 23.404015225436 2514.4688424562 6258.1559395336
7	3444191 482551 28 401850 0.253061427269 10799.373894785808 13568 2.28038e-05 7.24546 9450.4025631756 12974.738595677
