file 1142182 1441986750                                         
version 2
run General-0-20150911-17:52:20-21129
attr configname General
attr datetime 20150911-17:52:20
attr experiment General
attr inifile omnetpp.ini
attr iterationvars ""
attr iterationvars2 $repetition=0
attr measurement ""
attr network CloudDataCenterTS
attr processid 21129
attr repetition 0
attr replication #0
attr resultdir results
attr runnumber 0
attr seedset 0

vector 0  CloudDataCenterTS.sink  responseTime_0  ETV
vector 1  CloudDataCenterTS.sink  delayTime_0  ETV
vector 2  CloudDataCenterTS.sink  queuingTime_0  ETV
vector 3  CloudDataCenterTS.sink  serviceTime_0  ETV
vector 4  CloudDataCenterTS.sink  responseTime_1  ETV
vector 5  CloudDataCenterTS.sink  delayTime_1  ETV
vector 6  CloudDataCenterTS.sink  queuingTime_1  ETV
vector 7  CloudDataCenterTS.sink  serviceTime_1  ETV
0	797 152687 38 118389 0.89601873317 3599.398679908257 3767 0.00654337603 11.082464315859 4601.1701720103 10992.908321713
1	153484 152717 38 118389 0.89601873317 3599.398679908257 3767 0.25119120784 2.297682424833 1742.6596864358 975.30362025068
2	306201 112794 38 118389 0.89601873317 3599.398679908257 3767 0 6.363218917679 584.42818611785 1004.9595591931
3	418995 152700 38 118389 0.89601873317 3599.398679908257 3767 0.718997385049 8.446380318333 5918.9045482607 12028.752635868
4	571695 152714 56 118403 1.937029079545 3599.719391231568 3769 0.009233934653 12.845949794704 4477.2627199274 10290.807387441
5	724409 152755 56 118403 1.937029079545 3599.719391231568 3769 0.251201748666 2.167890229798 1741.6317668213 974.4050647013
6	877164 112272 56 118403 1.937029079545 3599.719391231568 3769 0 4.663155277846 519.80591862268 762.0164864342
7	989436 152746 56 118403 1.937029079545 3599.719391231568 3769 0.718906959734 9.755111389989 5860.7786751374 11777.134582773
