file 1930696 1442839704                                         
version 2
run General-2-20150921-14:48:21-7232
attr configname General
attr datetime 20150921-14:48:21
attr experiment General
attr inifile omnetpp.ini
attr iterationvars $0=62532
attr iterationvars2 "$0=62532, $repetition=0"
attr measurement $0=62532
attr network CloudDataCenterTS
attr processid 7232
attr repetition 0
attr replication #0
attr resultdir results
attr runnumber 2
attr seedset 2

vector 0  CloudDataCenterTS.sink  responseTime_0  ETV
vector 1  CloudDataCenterTS.sink  delayTime_0  ETV
vector 2  CloudDataCenterTS.sink  queuingTime_0  ETV
vector 3  CloudDataCenterTS.sink  serviceTime_0  ETV
0	608 504260 29 201971 1.688218945863 10798.45659763948 12146 -9.026779118563 28.360290799157 12659.886235454 78161.583954874
1	504868 500489 29 201971 1.688218945863 10798.45659763948 12146 6.009046e-06 3.216697493882 3822.0713823283 2457.9608686034
2	1005357 424747 29 201971 1.688218945863 10798.45659763948 12146 0 21.291379894231 8073.3630935852 28065.805672798
3	1430104 500592 29 201971 1.688218945863 10798.45659763948 12146 4.1657554e-05 9.878154658441 11468.608442451 21769.539049579
