file 3429055 1442494034                                         
version 2
run General-0-20150917-14:45:08-3041
attr configname General
attr datetime 20150917-14:45:08
attr experiment General
attr inifile omnetpp.ini
attr iterationvars $0=1937
attr iterationvars2 "$0=1937, $repetition=0"
attr measurement $0=1937
attr network CloudDataCenterTS
attr processid 3041
attr repetition 0
attr replication #0
attr resultdir results
attr runnumber 0
attr seedset 0

vector 0  CloudDataCenterTS.sink  responseTime_0  ETV
vector 1  CloudDataCenterTS.sink  delayTime_0  ETV
vector 2  CloudDataCenterTS.sink  queuingTime_0  ETV
vector 3  CloudDataCenterTS.sink  serviceTime_0  ETV
vector 4  CloudDataCenterTS.sink  responseTime_1  ETV
vector 5  CloudDataCenterTS.sink  delayTime_1  ETV
vector 6  CloudDataCenterTS.sink  queuingTime_1  ETV
vector 7  CloudDataCenterTS.sink  serviceTime_1  ETV
0	816 456676 34 323317 0.606145646654 10798.990808574537 11031 0.002437737466 20.88187374975 12501.676325039 31376.787888329
1	457492 456691 34 323317 0.606145646654 10798.990808574537 11031 5.535189e-06 1.345585162346 1171.4310771567 251.45650811478
2	914183 362886 34 323317 0.606145646654 10798.990808574537 11031 0 15.520779320735 3043.0622216315 6088.3332269647
3	1277069 456675 34 323317 0.606145646654 10798.990808574537 11031 2.2803758e-05 7.600177584535 8280.1033013662 12407.335857454
4	1733744 447025 54 323301 1.363787654311 10798.493873356341 10795 0.003444180344 18.260327749753 11997.345229548 29853.141247743
5	2180769 447004 54 323301 1.363787654311 10798.493873356341 10795 4.01098e-07 1.004538690346 1140.0632661981 246.16337716791
6	2627773 354276 54 323301 1.363787654311 10798.493873356341 10795 0 10.29018977104 2780.9517246404 5282.8194731511
7	2982049 447006 54 323301 1.363787654311 10798.493873356341 10795 0.000340492374 8.822462464002 8069.1987813702 12310.022421044
