file 1116780 1442742358                                         
version 2
run General-0-20150920-11:45:56-10956
attr configname General
attr datetime 20150920-11:45:56
attr experiment General
attr inifile omnetpp.ini
attr iterationvars $0=12846
attr iterationvars2 "$0=12846, $repetition=0"
attr measurement $0=12846
attr network CloudDataCenterTS
attr processid 10956
attr repetition 0
attr replication #0
attr resultdir results
attr runnumber 0
attr seedset 0

vector 0  CloudDataCenterTS.sink  responseTime_0  ETV
vector 1  CloudDataCenterTS.sink  delayTime_0  ETV
vector 2  CloudDataCenterTS.sink  queuingTime_0  ETV
vector 3  CloudDataCenterTS.sink  serviceTime_0  ETV
vector 4  CloudDataCenterTS.sink  responseTime_1  ETV
vector 5  CloudDataCenterTS.sink  delayTime_1  ETV
vector 6  CloudDataCenterTS.sink  queuingTime_1  ETV
vector 7  CloudDataCenterTS.sink  serviceTime_1  ETV
0	821 149369 60 202213 2.550679231794 10795.107863118753 3581 -20.532186649072 31.219744180699 1293.0552026488 68452.363942292
1	150190 147541 60 202213 2.550679231794 10795.107863118753 3581 4.3473617e-05 7.981336056851 2207.5817553989 2809.0413267268
2	297731 113983 60 202213 2.550679231794 10795.107863118753 3581 0 18.613673818612 2007.2832765692 9573.4957530397
3	411714 147592 60 202213 2.550679231794 10795.107863118753 3581 0.001246142442 20.892948883573 7803.2968333673 34019.537773698
4	559306 149517 63 202255 3.01737346447 10798.215637000246 3582 -21.236833767091 33.356705538251 406.78221414461 58886.141911213
5	708823 147606 63 202255 3.01737346447 10798.215637000246 3582 4.7246e-05 4.371398856785 2168.8716780717 2552.871710834
6	856429 112704 63 202255 3.01737346447 10798.215637000246 3582 0 21.304469246613 1515.9921471843 6436.4707202107
7	969133 147647 63 202255 3.01737346447 10798.215637000246 3582 0.000413951459 24.957264524536 7438.7565110854 31315.728384177
