version 2
run General-0-20150920-11:45:56-10956
attr configname General
attr datetime 20150920-11:45:56
attr experiment General
attr inifile omnetpp.ini
attr iterationvars $0=12846
attr iterationvars2 "$0=12846, $repetition=0"
attr measurement $0=12846
attr network CloudDataCenterTS
attr processid 10956
attr repetition 0
attr replication #0
attr resultdir results
attr runnumber 0
attr seedset 0

vector 0  CloudDataCenterTS.sink  responseTime_0  ETV
vector 1  CloudDataCenterTS.sink  delayTime_0  ETV
vector 2  CloudDataCenterTS.sink  queuingTime_0  ETV
vector 3  CloudDataCenterTS.sink  serviceTime_0  ETV
vector 4  CloudDataCenterTS.sink  responseTime_1  ETV
vector 5  CloudDataCenterTS.sink  delayTime_1  ETV
vector 6  CloudDataCenterTS.sink  queuingTime_1  ETV
vector 7  CloudDataCenterTS.sink  serviceTime_1  ETV
0	60	2.550679231794	-1.041069777337
0	139	7.680306209533	0.386695505421
0	198	9.334043635606	0.509783964906
0	244	11.064490037774	1.273026157178
0	263	12.348160350136	-1.499387427013
0	326	15.949028146803	-0.018714505343
0	363	17.494392914239	-2.221092477443
0	518	23.314847217234	-0.68133320312
0	659	27.70631797045	-3.823345795962
0	662	28.108489308122	3.860560068892
0	681	32.536742825649	-3.344170721234
0	687	33.199362307136	1.055137836419
0	753	36.959526197452	-0.81538070378
0	816	39.676551127096	-0.388633683536
0	831	40.311576436461	-2.145823973085
0	863	43.128949411933	-6.157857658982
0	977	51.43019142659	1.38546042711
0	1009	53.349267425227	-3.578261081954
0	1012	54.729171117516	3.50149031038
0	1061	58.37442280994	-9.38886442671
0	1116	68.658462942367	-0.154480143246
0	1175	71.099065400666	-9.029002474858
0	1204	72.900921817393	1.890472502502
0	1291	81.203400662424	-10.659164383691
0	1422	92.343642182089	12.013504755948
0	1444	93.329643394812	-7.018414075755
0	1449	93.637328845117	1.694811200886
0	1646	105.882322858011	0.196485652623
0	1680	106.946717109855	3.89749601344
0	1728	108.522651981925	3.80123582157
0	1900	113.544680833261	0.645183049932
0	1909	113.794496112151	2.66125641274
0	1923	114.485767109579	1.576856245266
0	1940	115.201533024948	10.282816247757
0	1947	115.878272741082	-1.364906854043
0	1988	118.789821730769	-0.170143800013
0	2115	125.234348321853	2.958861589225
0	2204	129.161238675508	-1.997388167207
0	2281	133.019995776914	5.223213343289
0	2294	133.931028591368	1.031330096
0	2313	136.244792773617	-4.226393512802
0	2401	141.806645477018	-0.730134830691
0	2470	144.120236277041	-1.619830314591
0	2481	144.468075596721	1.892535726316
0	2523	146.298583870867	-1.813389841337
0	2625	150.229525525106	0.330093656291
0	2666	151.256112018136	-0.755019067998
0	2705	152.559249246695	-0.368227607355
0	2776	155.197842270342	-8.370703492665
0	2848	165.18880158984	-3.418308433333
0	2919	169.375237626129	-1.467545418312
0	3032	173.472244356482	-1.771690953986
0	3080	175.583015649196	6.652165452599
0	3117	176.698774825181	-2.04037402573
0	3218	179.775663867951	-2.836639457942
0	3352	184.585550746169	9.198264667076
0	3382	185.497863015059	0.266962961121
0	3412	186.192741424141	0.850101264426
0	3425	186.782184140966	-2.001200372101
0	3488	191.388940030518	-3.65411888432
0	3609	197.412347748766	2.009374150825
0	3757	201.452348072623	3.893279555599
0	3762	201.523652778349	1.971616451112
0	3788	202.256622346645	2.292521922442
0	3815	203.044566280751	-0.595265328862
0	4020	211.140704214871	3.848514169775
0	4070	212.589793875763	-8.523708629276
0	4198	218.786007166141	7.610767942389
0	4275	222.616119837317	0.89140752865
0	4388	225.838240555179	29.891930816554
0	4410	226.424483440828	23.838000423491
0	4418	226.710582864013	4.214495167256
0	4473	228.643362783645	1.286663650332
0	4482	229.424872456511	1.429024013453
0	4507	231.764956130617	24.522742792146
0	4513	232.050733789296	-5.743862044952
0	4548	239.103380888778	-4.580175500316
0	4578	244.828855732822	-0.596127904226
0	4618	246.906215959518	-1.92132099661
0	4770	252.102833518244	7.939430090278
0	4776	252.303174859548	-0.512440499133
0	4801	253.957225844457	0.858326416186
0	4859	256.890901492364	-0.02946903797
0	4875	257.450725011173	-0.808726700882
0	4983	261.836715598292	-0.543613192854
0	5042	263.231169406399	-8.317404702985
0	5090	265.628996781046	3.074450823384
0	5169	271.730789111474	-0.029159346119
0	5238	275.828215258853	-7.420344176026
0	5241	276.262624895237	0.874949232971
0	5356	287.958585230219	-2.878021770835
0	5412	292.20931184599	-5.145137109433
0	5499	300.8321982044	-2.195531137773
0	5544	305.090726717527	-2.084525550846
0	5611	310.151732380567	1.052456259014
0	5659	315.435460014289	-8.83871272503
0	5667	316.167256069893	1.352020951018
0	5731	324.978190115506	-1.435266410325
0	5753	326.428168107144	1.859545293199
0	5783	330.263093734495	-6.577319372684
0	5880	339.378508421667	-2.20267984674
0	5941	342.570296497704	-2.280407121872
0	5947	342.923267191583	1.172919939653
0	6005	347.258873482801	-3.440285172421
0	6042	351.522513849003	-0.045867289442
0	6088	353.465319964211	-0.763142208546
0	6138	356.084950294321	-4.310317147205
0	6223	362.222105771046	1.54490256069
0	6226	362.269520062733	-0.028039905336
0	6348	366.527286486375	0.971510750542
0	6370	367.495015566236	-0.848497986628
0	6376	367.912039168298	1.956552356624
0	6396	369.017301196597	-1.297072644068
0	6597	375.121165297125	1.497679080135
0	6633	376.312440089043	5.36089855262
0	6647	377.234630285861	5.05125018187
0	6650	377.645235536374	-1.827627353178
0	6724	380.541716947528	-2.093449348129
0	6771	382.872254848523	3.327386299473
0	6799	383.722496839272	0.251352553579
0	6851	385.154261886593	1.226629666658
0	7049	390.038118095197	3.574014330911
0	7085	390.962897803447	1.92287008901
0	7089	391.043603075259	-0.338952029072
0	7119	392.043900803049	-2.16622096036
0	7173	395.47705307382	0.916941213975
0	7210	396.496563973681	0.323785441324
0	7259	398.805888660635	-3.509664550136
0	7334	404.095738339149	-2.37986015475
0	7374	407.268809250321	-5.882961727108
0	7520	417.67385172519	-2.106329977091
0	7546	419.004002056346	4.061910471998
0	7596	421.218412202075	0.560076528619
0	7677	423.010860867327	-0.721397620357
0	7758	424.814558642544	3.630253833285
0	7763	424.85835703886	2.336966114456
0	7890	427.779489065081	1.020968754204
0	7932	429.161528640796	-1.023156046893
0	7946	429.674418430266	4.03591486605
0	7983	430.962342769599	3.250819388301
0	8010	435.313238681397	-10.161478706532
0	8091	446.789047252741	-11.071684693055
0	8133	449.647517284989	3.817046381348
0	8203	458.172618375861	-0.368588009161
0	8266	461.734149271791	1.007198716221
0	8277	462.589366148734	-3.90757709104
0	8363	469.499034440934	0.53677744144
0	8389	471.418630283773	-1.071801500098
0	8444	473.93988012917	0.919883798623
0	8449	476.065466202692	-10.429286139517
0	8578	488.431291496349	-5.550295443145
0	8587	489.875975041452	2.677687928384
0	8590	490.352033880453	2.929857685098
0	8654	496.167017514936	-4.714364922305
0	8718	502.586740709694	0.767601961198
0	8739	503.579159717271	0.041057018199
0	8771	504.877377896853	-2.641290452434
0	8812	508.571822726154	-4.661696318765
0	8913	514.924957820629	-3.942384684219
0	8943	523.279365547916	-2.469865052102
0	8994	527.84929407902	1.953050724166
0	9008	528.362653354899	-0.696299103754
0	9181	532.857710116018	-3.291031176955
0	9341	537.34956157525	7.325458686276
0	9360	537.826455844268	1.043759791524
0	9379	538.636409348328	7.029088270148
0	9409	541.584959074678	-2.153047161307
0	9563	548.913832959965	1.535605735692
0	9585	549.58961893296	3.02284439642
0	9628	553.053574461959	-0.442881084296
0	9691	555.190251833949	0.771832676424
0	9735	556.663961883727	-1.244780563855
0	9797	560.420511839568	-1.455013516823
0	9832	562.983045406649	-4.699565597914
0	9882	568.247380714751	-1.080155905814
0	9970	570.842059989953	3.098045439368
0	9999	571.408267416605	1.192628696001
0	10089	573.622595922284	1.951106080708
0	10153	575.188424573723	0.93574050477
0	10171	575.63343889827	1.58529073612
0	10277	579.081336350347	7.88065824178
0	10290	579.407939313895	-3.362675911638
0	10348	582.460513249103	5.222760686168
0	10370	583.768472778278	0.185031819251
0	10505	590.368493261343	1.200611337763
0	10643	597.376553332955	8.399240375119
0	10662	598.108021246824	1.095005731175
0	10690	599.109671399603	4.672878159278
0	10717	599.888965263196	0.191873790306
0	10794	603.043134511521	-1.954952664856
0	10829	605.266925561559	-4.777196537527
0	10920	612.433985924859	1.40410628904
0	10961	613.892601866041	-4.397694382852
0	10968	614.069929665972	2.021335199489
0	11073	620.502514710765	1.051639285906
0	11144	622.236193141416	-3.327913344439
0	11170	622.972063193325	2.256268652211
0	11202	624.106095660676	4.086780748761
0	11359	629.069710968893	1.507303265519
0	11406	630.054640921173	3.764440126531
0	11460	631.281386324245	3.335062816969
0	11483	631.911434428758	2.247060433456
0	11605	636.222919593303	-6.039433054578
0	11651	638.549789114976	10.162936454002
0	11673	639.723160960765	5.38298006322
0	11715	644.911698169115	1.808010176434
0	11746	647.520346659904	0.796682306923
0	11808	654.729694356612	-1.888333528992
0	11904	659.601789661414	-4.494535180269
0	11948	664.977094116985	-1.515533500386
0	11968	666.702647713946	0.080652886285
0	12058	669.118503442345	0.604752388895
0	12192	673.809065185673	5.544900316744
0	12306	677.503127850492	4.751577342632
0	12309	677.505413236973	-3.446005856226
0	12362	681.350641382316	-3.98181727458
0	12430	684.540696061237	3.269388541332
0	12457	686.462309686474	-0.610308791156
0	12607	692.672224081113	1.427138114537
0	12626	693.292803651314	2.293938594571
0	12630	693.414147943013	-0.10713370167
0	12684	694.672173499554	-1.707690550727
0	12696	695.057516338287	0.903379911229
0	12754	697.646104784027	-2.43322313182
0	12855	702.289993927296	0.304094149004
0	12937	704.99165594112	0.829468327656
0	12981	706.917590402276	-1.009454381928
0	13010	708.057048520162	3.660720828043
0	13075	710.000065462994	0.965688833382
0	13109	711.606765728778	0.557843722387
0	13193	715.50528790131	-1.968049996887
0	13237	719.398478005537	-1.680106769301
0	13354	726.50333273917	-1.624818339135
0	13360	726.823536296041	8.314351507703
0	13382	728.53135667932	-0.44954199603
0	13446	730.22666541865	1.930594260279
0	13467	731.195817703446	1.978321181041
0	13500	732.58584343219	-2.076183162621
0	13537	734.951058259713	3.306303952971
0	13554	735.6381712821	-2.689456134779
0	13631	740.882839080512	-0.22556699082
0	13654	741.758563171929	-3.870643794154
0	13739	748.679371206265	0.702728784434
0	13751	750.101367851532	-1.438981916294
0	13807	753.323564016373	-0.274352444861
0	13865	755.727586312851	-0.160103047321
0	13904	757.084370664951	0.946959589102
0	13952	759.712098066113	-3.768814010591
0	13993	763.904734191707	-1.474150578549
0	14135	770.464191828253	2.1210278149
0	14253	773.074280074462	0.166107761533
0	14268	773.541825121772	4.484157517882
0	14363	776.123608577774	-0.024492764342
0	14422	777.852882221708	4.17857377461
0	14440	778.482089070048	7.594567380865
0	14528	783.546742367978	-5.695104858639
0	14534	784.791586385275	2.321220964467
0	14579	790.936349113894	1.132719576283
0	14624	793.398287836379	-3.931065948529
0	14703	798.999246019376	0.307621678271
0	14809	801.822795744094	-1.16357735856
0	14852	804.10613442684	-3.609739014033
0	14885	806.970090095607	7.807795129928
0	15023	811.01958263945	-6.179756633969
0	15076	812.428522026525	4.484927271041
0	15111	813.786322759386	3.124377636591
0	15184	818.104032935405	0.32826732617
0	15293	822.371165323643	-1.08220012411
0	15324	823.336272919469	3.518842472129
0	15436	826.653899036807	2.333001210041
0	15462	827.06356346564	-3.883080465581
0	15467	827.110734268009	0.649719809649
0	15576	833.146208945955	1.795251142231
0	15592	833.532729712765	-0.935560104108
0	15601	834.019013534814	0.658892007636
0	15618	834.798612229708	-5.057792957129
0	15691	840.302511337654	-2.801914736773
0	15736	843.794091752978	-6.506916466341
0	15762	846.062583685601	2.712326034873
0	15882	851.73630127498	-2.461513022218
0	15894	851.964994190782	1.562769552829
0	15930	856.16126312977	-3.837482081553
0	16040	862.635144843036	-0.006780580647
0	16080	864.845050975226	0.753278678927
0	16086	865.263812865695	-4.605755164055
0	16205	874.315706039003	-0.327245774854
0	16226	875.183000606212	-1.010209710561
0	16288	878.385900028031	-4.58371078252
0	16400	886.247061901387	1.443805016244
0	16406	886.410069631672	-5.009111851271
0	16412	886.492848681298	1.095697678593
0	16526	893.359394751079	0.015297516291
0	16559	894.293566643138	-1.682159055221
0	16577	895.058934471314	2.849902404189
0	16658	898.379990330102	0.68014137715
0	16734	900.796641748861	2.251985897104
0	16819	905.783026552122	-0.785238529554
0	16871	907.503653272951	-1.047272824182
0	17013	911.739634335884	1.21241093242
0	17179	916.956112838139	0.265315886148
0	17191	917.578637582208	3.72110472399
0	17196	917.691645380802	-9.384427787717
0	17202	917.717533681737	3.737561959273
0	17230	919.74216359013	15.103027585479
0	17320	924.247383815441	9.700331015998
0	17384	929.678332949843	0.930504646247
0	17411	931.26126077808	-0.318954486508
0	17444	934.260033855866	-1.7436197059
0	17587	939.421290780088	1.799869841088
0	17628	940.807434298989	-5.199894405821
0	17772	947.679648822317	8.966549775577
0	17803	949.05024496433	2.832788593718
0	17861	951.53020771062	-10.590454905047
0	17866	951.700827754045	2.158781818471
0	17912	963.4104025536	0.527281732922
0	17932	965.045306059303	-1.066277025513
0	18032	970.289351082205	1.32352865352
0	18125	976.417240245711	0.165998440988
0	18165	977.66799181514	1.020347369315
0	18209	979.029235731198	-0.036879671439
0	18262	981.00447070141	2.811593094358
0	18338	983.534930050176	0.665713407291
0	18370	985.005838370244	0.818804633684
0	18484	989.640879294407	1.22704898928
0	18493	990.011752244784	-4.001123597271
0	18589	995.83110392902	1.378780595961
0	18607	996.3372684933	-2.834457857143
0	18681	999.213213366875	4.035580007734
0	18780	1002.788911209237	-1.492576720686
0	18850	1005.567086862578	-2.305714945023
0	18894	1008.17186246268	0.274568977393
0	18992	1011.168104516639	0.308605417076
0	19012	1011.80293624071	2.390329141277
0	19130	1016.105800292895	2.985221133078
0	19178	1018.043686108683	-3.684987898407
0	19198	1019.203414467205	1.993788580562
0	19271	1023.837365250917	1.600419418106
0	19299	1025.180918080686	-0.267744429501
0	19401	1027.494142443554	5.029800553903
0	19436	1028.282136053898	-7.375259445159
0	19471	1029.368023789799	2.769345848429
0	19488	1030.177325729373	4.116588844686
0	19627	1038.250877653836	0.968102011628
0	19733	1042.813698286142	5.807966328155
0	19767	1044.121312589783	0.77351610234
0	19770	1044.204121095738	-0.00521921786
0	19890	1048.895167217366	0.193570708834
0	19953	1050.421363501643	0.881223103124
0	19995	1051.587046448035	2.123717630783
0	20000	1051.629458616025	-2.14464361425
0	20060	1053.810186832376	-0.581406933783
0	20129	1057.693476513712	-1.52541124917
0	20223	1061.500307264913	-0.708337350691
0	20255	1062.376155768223	-1.60367686362
0	20346	1065.62057716585	3.401284153441
0	20402	1068.164599976306	-4.263442311266
0	20408	1068.457212247853	7.881690294393
0	20465	1072.680512663643	-5.430731535617
0	20489	1078.451441548854	-2.011922104837
0	20535	1082.730863334018	-5.117847762099
0	20587	1089.80460975641	0.941173348143
0	20751	1097.46547844546	-5.269531593944
0	20762	1097.794082651571	1.634733176191
0	20837	1104.160904994977	-2.990803521759
0	20858	1105.090756193362	9.019114461324
0	20916	1108.654922077655	-1.342574962032
0	20958	1110.730580305645	-1.176242070465
0	21072	1115.386764996295	-1.818441227519
0	21115	1121.094898051605	-4.524261412791
0	21209	1127.806848215261	2.050972040971
0	21262	1129.722154107753	2.050881400853
0	21349	1132.524622922617	-2.173096794638
0	21375	1133.203819407377	5.904869463071
0	21458	1135.906344194802	-10.332313652486
0	21489	1138.50499867375	7.196881805587
0	21573	1149.789494080956	-8.872392519106
0	21611	1160.106251607491	1.17038542432
0	21620	1161.875219233152	-0.096475829401
0	21689	1163.881136815018	-0.124936833023
0	21743	1165.435860207616	-1.178232426436
0	21807	1167.69962232227	-4.309261527231
0	21943	1173.047367840477	6.204325747642
0	21951	1173.322217911282	0.665610647077
0	22084	1177.365298440486	1.733331235338
0	22089	1177.40303762124	2.295284353159
0	22147	1180.81165586888	-1.33312945349
0	22155	1182.758486854308	-2.184128220262
0	22190	1185.361435628701	-1.610489156512
0	22196	1185.528934657072	0.247166302382
0	22351	1189.771496147396	0.944896631948
0	22472	1192.625692120172	0.37742070863
0	22511	1193.529081348315	5.413415033096
0	22659	1196.709728100102	3.348537982483
0	22662	1196.733345841568	6.132547107947
0	22763	1198.687191341302	2.777358496162
0	22832	1200.458931796942	2.795393339334
0	22863	1201.805670140402	-1.119384649517
0	22942	1205.955021752763	-1.818428545278
0	23035	1210.350417180241	1.621237503428
0	23120	1212.145531106866	1.461415251617
0	23193	1214.311307305535	-1.149378852608
0	23204	1215.214505762617	3.792524797857
0	23252	1218.052495660089	-3.609269622318
0	23266	1218.782946622779	1.730352926647
0	23325	1221.712016607782	-3.245729946752
0	23357	1225.195063897241	-1.158813487488
0	23369	1226.972267508736	-5.292917861752
0	23442	1235.215790647245	-8.174058314294
0	23594	1249.294949874684	-2.497156978632
0	23628	1252.006103780802	3.046733581677
0	23710	1254.95437934647	1.398436487088
0	23742	1255.976316057458	1.293931757425
0	23745	1256.078781864962	-1.859834682411
0	23827	1260.047319595449	-5.843506800548
0	23835	1260.131967006431	2.063870469657
0	23892	1267.118879578532	-0.536246966165
0	23905	1268.688510888558	-12.202016570316
0	24043	1282.485211548325	-0.026000179581
0	24051	1282.656865849491	-9.083411247678
0	24142	1295.11192765558	-1.021675688954
0	24196	1297.416861561864	0.682730058629
0	24413	1309.928880960834	2.198901717195
0	24418	1310.059293984063	-2.070393406275
0	24530	1314.78974924467	-5.384906275986
0	24592	1318.633484159475	4.468206195367
0	24686	1323.921409927818	0.989921083358
0	24704	1325.016948125154	-1.141418531535
0	24718	1326.982599603611	-1.424402244292
0	24739	1331.120295835126	-0.276363344206
0	24782	1332.651674904962	0.452279799642
0	24869	1334.96197570055	1.930274652617
0	25023	1338.935959269347	4.885704951938
0	25076	1340.556562791639	1.417287951315
0	25079	1340.574278153294	-1.82934144468
0	25087	1340.768398309849	3.149271722285
0	25174	1344.999750578282	-4.563897515118
0	25305	1352.770127934113	-1.108073096786
0	25343	1355.211142448351	-3.807833117819
0	25370	1356.242083881021	2.253420680984
0	25540	1363.84626760811	-1.969616690664
0	25590	1366.734621130143	-0.989092015378
0	25700	1370.715596602648	-4.324329228926
0	25737	1372.842383322107	4.281253729668
0	25760	1376.041551411365	-3.888598812349
0	25804	1380.468960902736	-7.546008861043
0	25864	1389.842600587372	0.803045529446
0	25897	1390.99811072022	-1.429685928274
0	26088	1397.707589252602	2.910881072094
0	26130	1399.174446356119	3.44072826999
0	26142	1399.496272991487	-1.464382896016
0	26150	1399.70852882662	9.658448619595
0	26277	1402.843639225905	6.40827415964
0	26396	1405.589523706667	4.465913806436
0	26411	1405.945200252602	2.445127458558
0	26448	1407.381894936341	3.204846020502
0	26524	1410.573139135535	2.897092317843
0	26542	1411.365132377854	0.240504043389
0	26557	1414.076261465778	-0.030608301062
0	26613	1416.143159610138	-4.922533942227
0	26638	1418.978116362284	4.293400941586
0	26660	1421.164112774279	-5.851476626016
0	26770	1429.314999177194	1.123712217378
0	26800	1430.244363583452	-0.117770470666
0	26881	1432.817025823168	1.688328958327
0	26901	1433.706724159327	1.812492075143
0	26946	1435.999198009179	-1.703783859547
0	27074	1440.806220342793	-1.262514287536
0	27230	1445.9889822072	3.010288573895
0	27280	1449.599719875816	-2.664410060771
0	27387	1454.946700936143	2.631545002123
0	27477	1457.302477019208	3.732158577656
0	27817	1466.211763936022	7.737468823637
0	27838	1466.834008594749	5.999384427932
0	27861	1467.382161918189	9.784921947893
0	27864	1467.440959375639	-2.218407391746
0	27874	1467.803577899533	3.692679883711
0	27952	1471.380018906957	10.931145718065
0	27964	1471.698136713672	-3.352331604558
0	28017	1473.668172734471	2.663352120407
0	28041	1474.192853403737	16.307471644179
0	28049	1474.398972243652	21.365453205955
0	28114	1476.80675884073	-3.013436763993
0	28246	1482.515439661758	-0.449993251485
0	28277	1484.546132107144	-2.679730837236
0	28317	1486.503650668117	31.219744180699
0	28359	1489.528777360081	-9.213906786984
0	28378	1491.443109710102	2.346578135132
0	28490	1499.128866238587	-4.262073278927
0	28551	1504.95875994518	-1.363261668824
0	28628	1508.76348898515	-0.3556949947
0	28655	1509.584618370942	-5.826297719209
0	28693	1511.293711989868	4.534256179484
0	28759	1515.959907811438	-0.897260906009
0	28783	1517.33894577715	-3.067748615314
0	28895	1522.959669636105	-5.350363879417
0	28933	1524.820840460283	4.336571525213
0	28955	1529.141458136845	-0.106708277628
0	29065	1533.699147664069	-7.185870836026
0	29088	1534.722627408689	2.019294552286
0	29191	1543.059327062562	0.666403064799
0	29338	1547.415995255083	0.46109275177
0	29588	1553.736724451631	-4.417775031794
0	29614	1554.269440341779	3.005163480812
0	29617	1554.291913334462	4.093390865423
0	29756	1558.483513615429	17.360364932476
0	29765	1558.794225450773	6.64857737897
0	29784	1560.228223844227	-0.870364197339
0	29820	1563.055725348191	19.300580513076
0	29858	1564.676280830252	15.714906097136
0	29905	1566.241218227297	1.38735104035
0	29944	1567.465679364373	1.226478630542
0	30003	1569.656680170937	-1.857569190688
0	30060	1573.899728028628	-3.277844607474
0	30112	1578.078174984293	-2.624259796989
0	30156	1581.601449690453	-0.099839481736
0	30253	1584.230103947058	1.820470624176
0	30288	1585.763189162323	0.252823888372
0	30323	1587.475013147172	-10.855235911183
0	30386	1599.96459138592	1.361559629545
0	30424	1602.124802452104	0.056769441652
0	30457	1603.723112177361	-0.391362405276
0	30526	1605.903836123315	0.344290552627
0	30549	1606.453754507186	0.752082836807
0	30610	1609.336823668791	-3.655479258251
0	30673	1614.159578627428	0.095596573145
0	30845	1618.091473657974	1.9646133579
0	30870	1618.814702534113	-1.195938772875
0	30884	1619.079313126931	4.931863635832
0	30985	1623.79797185655	-0.794480894226
0	31077	1627.870171159058	-1.290205332976
0	31127	1630.610595307356	5.948406712343
0	31132	1630.95465062476	-1.359789006042
0	31142	1631.200729374314	1.601920193966
0	31219	1634.350161853779	1.718706513334
0	31243	1635.744310962136	1.80685716762
0	31262	1637.062283484369	-4.480249905651
0	31382	1645.150373019513	0.157568963691
0	31393	1645.599988947262	-1.36420190234
0	31480	1649.005677843639	0.020110272676
0	31487	1649.218974989407	0.343438632805
0	31508	1649.756983102738	0.095261467169
0	31586	1653.250946671735	-1.721538060451
0	31752	1659.241258492752	-4.767090104598
0	31857	1665.029718788747	-1.989135604567
0	31903	1667.509608153992	0.403344922191
0	31943	1669.273981067559	0.925570638593
0	31946	1669.495652738443	-1.088409900118
0	31972	1672.572898657251	-2.884274949846
0	32002	1677.630010633491	-5.79573229312
0	32099	1687.787813060146	0.489329233458
0	32145	1690.675225097825	-2.393371258468
0	32228	1694.31755539893	-5.549720903273
0	32281	1696.03301554838	6.069882689399
0	32438	1706.175199803751	2.224677172903
0	32561	1709.906518728176	3.063492401224
0	32604	1710.839483281048	-1.889501201954
0	32619	1711.332032446943	5.567915728399
0	32658	1713.037921236803	4.987833461131
0	32746	1716.948292939413	-1.410365052286
0	32821	1720.213927310257	1.354521983837
0	32836	1721.053253742635	-0.039462624476
0	32850	1721.270186977192	0.110820476774
0	32908	1723.75511767885	1.361472216195
0	32933	1725.978582817673	-2.603860152381
0	32998	1730.550080429746	-3.378900501399
0	33042	1734.567625661797	-1.74425306396
0	33123	1738.459559172698	1.05742064762
0	33149	1740.139742234816	-0.761742448749
0	33168	1741.356618449672	-0.2875603498
0	33192	1742.813574917089	-2.170402848967
0	33225	1746.009677742966	-4.714221495865
0	33289	1751.073396607782	-4.506936785252
0	33354	1757.54678734704	-3.102874294519
0	33366	1758.356992636545	2.187206890553
0	33620	1764.954716864415	1.360550150644
0	33630	1765.036300347022	2.435026504132
0	33722	1768.514175254217	0.918929301322
0	33748	1769.296184568897	7.964604865227
0	33800	1770.968651692832	9.143702061266
0	33808	1771.391209475523	-0.913117916084
0	33856	1773.51326654663	-1.042777055878
0	33871	1774.028791565037	4.594815927295
0	33891	1774.5492282618	13.653962454852
0	33953	1776.777519412173	4.229224149222
0	33973	1777.378975885794	0.392143179671
0	34038	1779.177875080157	1.441103132052
0	34049	1779.311012594482	-4.763204692793
0	34112	1781.704012457279	2.939134524888
0	34286	1789.445889365583	5.195732925365
0	34309	1790.299988233954	1.940590203218
0	34332	1791.078355076591	-2.075799710405
0	34344	1791.721923043501	1.417425009618
0	34371	1794.48847087806	0.203602338002
0	34473	1799.039596805359	0.556394871889
0	34489	1799.727955045168	-6.512862546254
0	34535	1807.757950424829	-3.918965258165
0	34568	1809.440839885952	1.982457643863
0	34710	1815.391013383799	1.547176497858
0	34786	1818.993345287382	-1.921740079004
0	34834	1821.817979738927	3.937294752788
0	34852	1823.113428899481	-3.632531110882
0	34952	1828.495335467301	1.236501349072
0	34965	1828.917773904643	-2.175135092695
0	35092	1835.03544609965	-0.600415146739
0	35114	1838.077580919326	-7.812359935436
0	35270	1853.114370174847	3.997102771561
0	35273	1853.798621224572	-2.665255349386
0	35350	1857.752723612366	0.455983058853
0	35386	1859.464825764883	-0.556584767818
0	35411	1860.293046941732	-1.350705911778
0	35504	1863.219102573399	0.822483270371
0	35604	1866.819462425818	-1.366085604946
0	35657	1868.592442812182	2.237384093848
0	35669	1868.755498440094	-3.591760578854
0	35702	1870.311712739695	1.711228342075
0	35790	1874.186863238603	-1.180974387154
0	35883	1877.599743389123	-2.97237334303
0	35889	1878.139669038313	2.293584290303
0	35911	1880.887901381037	-13.394695530173
0	35977	1896.27768181112	0.082956138876
0	35986	1896.584593303726	-4.609197438567
0	36034	1901.663485963076	-0.742739243898
0	36111	1905.078697443866	1.461594157257
0	36148	1906.612921117122	-0.391645291957
0	36235	1913.431382439725	-1.592546700597
0	36279	1916.063771304614	-0.439898805206
0	36361	1919.576726139995	0.902551269287
0	36490	1923.529898439711	-3.226650827685
0	36510	1924.809584724077	3.586185671312
0	36544	1927.909378101652	-2.817850719708
0	36592	1931.526320165615	-2.594451190163
0	36640	1934.53375370266	-2.055077057711
0	36737	1940.901989063637	1.780138580952
0	36775	1942.679346234243	0.730797669041
0	36781	1942.952720328926	-1.693849360469
0	36858	1946.914904514528	-0.170810903713
0	36880	1948.934236446446	-2.52703514586
0	36937	1953.917379496243	-1.397233916775
0	36953	1954.695425748333	1.844544305038
0	36976	1956.0377682014	-2.457637332841
0	37132	1963.161143381296	1.878269089829
0	37192	1964.70413389105	-0.563418165107
0	37251	1967.232443817882	8.615820507841
0	37271	1967.703571483835	5.042925431798
0	37292	1968.081281256721	-3.107784530389
0	37339	1970.351399370455	3.025791867041
0	37367	1971.643142727033	-1.613804546373
0	37414	1974.737984078574	-6.743541084198
0	37489	1981.861487256536	-1.498613711565
0	37699	1988.845463420678	5.466706822313
0	37762	1990.899908375153	3.166081079655
0	37790	1991.614083445017	5.624272543046
0	37817	1992.214951639171	-2.322051902657
0	37826	1992.378790683234	1.269116035242
0	37848	1993.258369135383	2.663692925567
0	37984	1997.909400537424	2.304316963701
0	38005	1998.543555177249	-5.748683028057
0	38177	2006.526447139239	-1.913922114596
0	38201	2007.66181282992	3.212330728441
0	38324	2015.055488849788	9.758229086079
0	38337	2015.792460671813	0.718151713256
0	38345	2016.948032780353	-0.596747497576
0	38367	2019.264557393533	-1.927512932234
0	38396	2021.615948922215	-4.922766388852
0	38524	2027.683742143786	-2.118456788169
0	38608	2030.88133894407	-0.985745416445
0	38611	2031.153688375846	4.558887660486
0	38664	2033.497137162696	-1.520751815331
0	38748	2036.107299965242	0.71752729283
0	38795	2037.632141562853	0.898250484322
0	38878	2040.175919814755	0.684808184427
0	38891	2040.45689414334	3.643003110125
0	38940	2043.00536776959	9.845435650159
0	38980	2044.939533292412	-0.065985861474
0	39058	2047.363094539753	1.495388052628
0	39098	2049.138743952256	-0.173095109044
0	39169	2053.853029291159	-3.674327890885
0	39191	2054.843846587866	10.664861848373
0	39214	2059.805331085345	-0.742215995234
0	39268	2063.059482568259	0.617819589186
0	39288	2064.05436352406	-0.229623089672
0	39301	2064.958426825016	-3.434572368597
0	39353	2069.127691576864	-2.179008518976
0	39544	2076.072913838965	4.592558730048
0	39547	2076.224669143719	-1.22049847666
0	39590	2080.564590224382	-0.202940905432
0	39696	2083.722063252138	0.200067305016
0	39862	2089.81985121441	1.659017153259
0	39873	2090.421732934282	2.571813848696
0	39922	2092.584389877128	10.004159895476
0	39963	2094.000417529123	1.849145003077
0	40013	2095.098166001277	-1.063998914529
0	40049	2096.20094915298	1.866816369836
0	40086	2097.507403887639	-2.080914256815
0	40146	2101.860125010315	-1.530823995601
0	40234	2107.864452385267	-0.409424940603
0	40256	2108.773328262174	2.943091685941
0	40272	2109.027151264135	0.228999305585
0	40309	2109.848740009959	0.358352470636
0	40436	2112.944263797778	1.302197308602
0	40497	2115.8022019206	5.714905402287
0	40549	2118.262056459815	0.952142492354
0	40584	2120.551098710847	0.547450935285
0	40605	2121.176951109092	0.295115334171
0	40648	2122.467800679594	-0.281395667572
0	40688	2124.256868556898	-1.575264139345
0	40732	2126.237714453751	-5.45292838523
0	40789	2132.919126904608	-1.676864549721
0	40842	2135.040066394531	-4.333804090442
0	40867	2141.650543392054	-11.104889170905
0	41015	2156.170269010289	3.19962252775
0	41076	2160.433173505604	-1.410986901325
0	41087	2161.202634386716	1.933708427618
0	41177	2164.956768195668	0.225382497946
0	41249	2167.337707434856	-3.919569471984
0	41307	2169.287404138754	2.490663566616
0	41350	2171.080238247797	7.844429000688
0	41384	2172.654794817366	-6.622218748196
0	41423	2179.619414990895	0.327786124026
0	41441	2180.285351389571	-4.631659226763