file 1116830 1442742364                                         
version 2
run General-2-20150920-11:46:02-10966
attr configname General
attr datetime 20150920-11:46:02
attr experiment General
attr inifile omnetpp.ini
attr iterationvars $0=62532
attr iterationvars2 "$0=62532, $repetition=0"
attr measurement $0=62532
attr network CloudDataCenterTS
attr processid 10966
attr repetition 0
attr replication #0
attr resultdir results
attr runnumber 2
attr seedset 2

vector 0  CloudDataCenterTS.sink  responseTime_0  ETV
vector 1  CloudDataCenterTS.sink  delayTime_0  ETV
vector 2  CloudDataCenterTS.sink  queuingTime_0  ETV
vector 3  CloudDataCenterTS.sink  serviceTime_0  ETV
vector 4  CloudDataCenterTS.sink  responseTime_1  ETV
vector 5  CloudDataCenterTS.sink  delayTime_1  ETV
vector 6  CloudDataCenterTS.sink  queuingTime_1  ETV
vector 7  CloudDataCenterTS.sink  serviceTime_1  ETV
0	821 149390 63 202319 2.550679231794 10795.52852250827 3581 -20.532186649072 32.425381204537 1180.8178954383 67625.970730538
1	150211 147565 63 202319 2.550679231794 10795.52852250827 3581 4.3473617e-05 6.139489274501 2181.3011353186 2686.8327057634
2	297776 113852 63 202319 2.550679231794 10795.52852250827 3581 0 18.227637832897 1963.0823804396 9420.7335507527
3	411628 147600 63 202319 2.550679231794 10795.52852250827 3581 0.001246142442 20.892948883573 7749.1060530678 33548.770159416
4	559228 149554 70 202357 3.733852855184 10798.215637000246 3582 -21.590353336173 37.854780331812 490.48824954728 61320.13219419
5	708782 147659 70 202357 3.733852855184 10798.215637000246 3582 3.6343077e-05 4.371398856785 2191.9935365317 2597.7623754163
6	856441 112738 70 202357 3.733852855184 10798.215637000246 3582 0 24.493542480933 1581.3264429836 7427.3747793129
7	969179 147651 70 202357 3.733852855184 10798.215637000246 3582 0.000538136896 26.118005948973 7457.2953036949 31540.745422008
