file 1930264 1442839708                                         
version 2
run General-3-20150921-14:48:25-7237
attr configname General
attr datetime 20150921-14:48:25
attr experiment General
attr inifile omnetpp.ini
attr iterationvars $0=74063
attr iterationvars2 "$0=74063, $repetition=0"
attr measurement $0=74063
attr network CloudDataCenterTS
attr processid 7237
attr repetition 0
attr replication #0
attr resultdir results
attr runnumber 3
attr seedset 3

vector 0  CloudDataCenterTS.sink  responseTime_0  ETV
vector 1  CloudDataCenterTS.sink  delayTime_0  ETV
vector 2  CloudDataCenterTS.sink  queuingTime_0  ETV
vector 3  CloudDataCenterTS.sink  serviceTime_0  ETV
0	608 504395 29 201542 1.688218945863 10798.311681338407 12147 -9.026779118563 28.361542400406 12494.104284327 77236.389004135
1	505003 500543 29 201542 1.688218945863 10798.311681338407 12147 6.009046e-06 3.737573248106 3816.2578416617 2446.0802870223
2	1005546 424066 29 201542 1.688218945863 10798.311681338407 12147 0 22.013612191914 8000.9991628089 27709.653574759
3	1429612 500652 29 201542 1.688218945863 10798.311681338407 12147 5.415482e-05 10.347075751561 11400.212618993 21503.857446098
