version 2
run General-0-20150912-10:19:13-6843
attr configname General
attr datetime 20150912-10:19:13
attr experiment General
attr inifile omnetpp.ini
attr iterationvars ""
attr iterationvars2 $repetition=0
attr measurement ""
attr network CloudDataCenterTS
attr processid 6843
attr repetition 0
attr replication #0
attr resultdir results
attr runnumber 0
attr seedset 0

vector 0  CloudDataCenterTS.sink  responseTime_0  ETV
vector 1  CloudDataCenterTS.sink  delayTime_0  ETV
vector 2  CloudDataCenterTS.sink  queuingTime_0  ETV
vector 3  CloudDataCenterTS.sink  serviceTime_0  ETV
vector 4  CloudDataCenterTS.sink  responseTime_1  ETV
vector 5  CloudDataCenterTS.sink  delayTime_1  ETV
vector 6  CloudDataCenterTS.sink  queuingTime_1  ETV
vector 7  CloudDataCenterTS.sink  serviceTime_1  ETV
0	48	1.422748213753	1.422748213753
0	89	4.260021904268	1.076521904268
0	118	5.489226903895	0.713976903895
0	197	9.40697009803	1.44822009803
0	252	11.174368878089	4.807368878089
0	262	11.412734870374	1.862244870374
0	305	12.851563466708	0.117563466708
0	372	15.520172874487	4.377972874487
0	398	16.389324779432	2.063624779432
0	473	18.614142442941	2.696642442941
0	525	19.889863045156	2.380663045156
0	537	20.493048386316	1.392048386316
0	594	22.226752112602	1.534052112602
0	664	24.58543954641	2.30093954641
0	674	25.193956054127	1.317756054127
0	690	25.818969399799	0.350969399799
0	752	28.791064482028	1.731364482028
0	818	31.23696570378	0.99376570378
0	837	31.924639168833	3.273139168833
0	846	32.40003845795	0.56503845795
0	898	35.1502561631	1.723556163101
0	913	35.857565123215	0.839065123215
0	938	37.168395734832	0.558195734832
0	995	40.016582737297	0.222882737297
0	1009	40.686223863019	2.484223863019
0	1068	42.943889435953	1.558389435953
0	1095	43.578873272315	0.601673272315
0	1127	44.82353511129	0.25453511129
0	1178	48.045040769886	1.884340769886
0	1183	48.199162298904	0.446662298904
0	1245	50.653189088424	1.308989088424
0	1281	51.786501425542	0.850501425542
0	1419	56.383074829474	2.263574829474
0	1455	57.380787619514	1.669587619514
0	1479	58.008732529208	5.481032529208
0	1505	59.199446743253	0.304746743253
0	1574	61.84261943014	1.35611943014
0	1637	63.416041607315	6.113041607315
0	1655	63.789531012654	1.711331012654
0	1708	65.655868798899	0.394168798899
0	1732	66.709231113792	3.039231113792
0	1786	68.840149773608	1.986649773608
0	1798	69.208436617213	0.763236617213
0	1826	71.187449238175	1.150449238175
0	1840	72.087401505378	0.458701505378
0	1866	74.129669142525	0.909169142525
0	1981	78.436917615776	2.032917615776
0	2030	79.949835305259	5.137635305259
0	2041	80.34624717688	0.75874717688
0	2060	81.039193520948	3.043493520948
0	2134	83.432057906491	2.252857906491
0	2137	83.501859400259	0.730959400259
0	2175	85.820522255732	1.457822255732
0	2228	88.34479117281	2.39039117281
0	2258	89.392593474024	1.846393474024
0	2295	91.223046696141	2.085146696141
0	2321	92.354837838971	1.625137838971
0	2349	93.694334542738	1.372934542738
0	2372	94.775640738505	0.862440738505
0	2406	96.300969571944	0.796069571944
0	2433	97.826882875465	0.730182875465
0	2456	98.857425620023	0.169025620023
0	2507	101.256743750252	0.976743750252
0	2583	104.202450051445	0.738450051445
0	2647	107.316909839686	0.669909839686
0	2651	107.478815898773	5.606815898773
0	2657	107.776931364952	2.721931364952
0	2693	109.125626460365	0.886626460365
0	2746	112.070022143923	2.239022143923
0	2753	112.426607630895	1.004607630895
0	2780	113.34390666635	0.32990666635
0	2822	115.69896145183	1.09296145183
0	2895	119.226305301402	1.437305301402
0	2912	119.794001657111	3.596001657111
0	2923	120.159669930946	0.778669930946
0	2940	121.290537740693	0.317537740693
0	3041	125.532989549297	1.376989549297
0	3138	128.482544279349	5.917544279349
0	3147	128.591235859853	1.251235859853
0	3153	128.687980520872	2.939980520872
0	3170	129.406061679032	0.474061679033
0	3233	132.418431929992	1.895431929992
0	3283	133.851054432852	0.144054432852
0	3338	135.662255498288	3.547255498288
0	3343	135.841407849569	0.542407849569
0	3445	140.202467225072	1.720467225072
0	3477	141.590791640631	4.700791640632
0	3499	141.918731532758	1.844731532758
0	3520	142.736215509323	1.070215509323
0	3546	144.659868694938	1.402868694938
0	3574	146.034988165878	1.185988165878
0	3619	147.834277868596	1.393277868596
0	3635	148.471532021217	0.438532021217
0	3716	151.571081598803	1.947081598803
0	3740	152.397574554311	1.181574554311
0	3799	154.749965989602	1.941965989602
0	3814	155.499121595043	1.099121595043
0	3903	158.435841457206	0.852841457206
0	3929	159.179394550174	3.188394550174
0	3944	159.946152257935	0.771152257935
0	3983	161.423280587849	0.656280587849
0	4058	164.0995717398	0.1495717398
0	4063	164.258085240737	1.900085240737
0	4183	168.381023930734	2.839023930734
0	4212	169.046462802321	1.912462802321
0	4293	171.346017445769	2.621017445769
0	4354	173.061673985271	1.152673985271
0	4359	173.160005677316	2.843005677316
0	4406	174.225638516742	0.724638516742
0	4430	175.576700802515	0.484700802515
0	4500	178.791371053184	2.107371053184
0	4540	180.162839930136	1.886839930136
0	4590	181.746759614307	1.878759614307
0	4624	183.320665408802	0.269665408802
0	4638	183.837098239723	2.378098239723
0	4743	187.982290854358	1.747290854358
0	4756	188.465721057201	3.822721057201
0	4760	188.6129278005	0.7869278005
0	4830	191.090613849656	1.672613849656
0	4848	191.876990892125	0.866990892125
0	4868	193.053281017816	0.451281017816
0	4976	197.854268735445	0.477268735445
0	4983	197.95942432965	2.17442432965
0	5006	199.038458656846	4.845458656846
0	5045	200.58880121187	1.61980121187
0	5061	201.519643822174	0.959643822174
0	5108	204.113924647266	1.961924647266
0	5219	207.967279244458	2.631279244458
0	5253	209.116447006352	2.189447006352
0	5269	209.627916188863	1.108916188863
0	5301	210.793241660827	7.049241660827
0	5343	212.20546010717	2.09446010717
0	5361	212.720353141165	1.017353141165
0	5414	214.577114520467	1.283114520467
0	5451	215.94192218432	1.05592218432
0	5489	217.017058073041	0.539058073041
0	5521	219.261213624776	1.191213624776
0	5653	223.944454435751	2.691454435751
0	5680	224.840887187048	0.403887187048
0	5697	225.297437391627	5.636437391627
0	5709	225.833495115736	2.988495115736
0	5729	227.017462036865	0.989462036865
0	5755	228.403475632481	0.783475632481
0	5814	231.53018575315	0.72618575315
0	5828	231.8978721664	2.6858721664
0	5861	233.375796590078	0.980796590078
0	5959	236.820910224098	2.833910224098
0	5977	237.446527676203	0.275527676203
0	5981	237.495666444728	1.916666444728
0	6020	239.795560184219	1.033560184219
0	6057	241.820045428298	1.466045428298
0	6087	243.329290438498	1.383290438498
0	6114	244.428544576378	0.890544576378
0	6144	245.676838826973	0.547838826973
0	6214	248.609443032307	1.888443032307
0	6254	250.039733003114	1.726733003114
0	6264	250.807116086984	0.902116086984
0	6283	252.272088266147	0.776088266147
0	6303	253.786132799028	0.698132799028
0	6331	255.068712762785	0.388712762785
0	6362	257.056408546916	0.784408546916
0	6388	258.350518651543	0.487518651543
0	6464	261.923872038007	2.468872038008
0	6467	262.360579291008	1.313579291008
0	6509	264.459148685034	0.229148685034
0	6513	264.533651016821	1.894651016821
0	6539	267.312234761516	1.490234761516
0	6574	268.696118869313	1.282118869313
0	6707	272.752861964204	2.155861964205
0	6717	273.148123576668	0.959123576668
0	6721	273.25823833042	4.252238330421
0	6796	275.789769872408	2.008769872408
0	6802	276.099361167671	0.726361167671
0	6873	279.991174244596	3.027174244596
0	6911	281.240895094907	1.092895094907
0	6928	282.052815545711	3.496815545712
0	6941	283.198695458953	1.458695458953
0	6988	285.047549847848	1.716549847848
0	7029	286.661287469777	0.146287469777
0	7046	287.73001973368	2.80701973368
0	7107	289.91839565104	1.81139565104
0	7126	290.869925903773	1.171925903773
0	7154	291.78107561407	0.49107561407
0	7203	293.796360599093	0.914360599093
0	7221	294.575696847639	0.101696847639
0	7293	297.856746636726	1.791746636726
0	7322	298.945287138255	1.288287138255
0	7340	299.429552712025	0.180552712025
0	7368	301.057898720471	0.216898720471
0	7412	304.266878297861	0.242878297861
0	7435	305.322746776278	2.890746776278
0	7463	306.973006608007	1.357006608007
0	7495	308.438221478972	1.230221478972
0	7506	308.881702226097	0.082702226097
0	7546	311.734879766455	1.343879766455
0	7597	314.427681096483	0.852681096483
0	7783	320.923227399098	5.757227399098
0	7786	320.957969741328	1.015969741328
0	7852	322.919033158198	1.386033158198
0	7869	323.316738972773	11.333738972773
0	7874	323.354075484674	5.004075484674
0	7886	323.669929658727	6.911929658727
0	7898	324.08655511313	0.96155511313
0	7952	326.402718172813	1.685718172813
0	7971	327.200684420919	0.891684420919
0	8034	329.981141769677	0.489141769677
0	8080	332.118744224736	4.218744224736
0	8122	333.748475218702	2.664475218702
0	8166	334.959522933871	0.692522933871
0	8170	335.01887079888	2.34287079888
0	8221	337.375922015931	1.516922015931
0	8285	340.151608200141	1.108608200141
0	8309	341.269979467451	3.818979467451
0	8314	341.538092418734	0.904092418734
0	8338	342.584521811435	0.358521811435
0	8418	345.756169099545	1.938169099545
0	8468	347.700170634415	2.290170634415
0	8538	349.696488055166	2.695488055166
0	8575	350.850454933435	2.257454933435
0	8611	352.266031333554	2.081031333554
0	8619	352.301665441216	0.524665441216
0	8712	355.93909765393	2.57109765393
0	8717	356.059826272161	1.099826272161
0	8788	358.355052638477	0.211052638477
0	8796	358.772406913629	2.220406913629
0	8892	362.906751187705	1.579751187705
0	8944	365.149211332362	0.638211332362
0	8975	366.481943869932	6.746943869932
0	8983	366.673811088313	0.571811088313
0	8992	367.459695112134	4.540695112134
0	9062	370.619327362023	2.925327362023
0	9065	370.63293605382	1.34693605382
0	9079	371.3032680805	0.4252680805
0	9133	374.321841573612	1.852841573612
0	9136	374.399559287962	0.338559287962
0	9169	376.632171199661	0.979171199661
0	9220	378.646018531728	1.401018531728
0	9278	381.003142450403	0.575142450403
0	9283	381.252226019241	2.416226019241
0	9351	384.088306543148	2.068306543148
0	9375	385.735456730564	0.532456730564
0	9379	385.844733516327	2.232733516327
0	9402	387.049822394296	0.254822394296
0	9458	390.315390094765	1.928390094765
0	9462	390.396063414402	0.417063414402
0	9484	391.767328102272	0.197328102272
0	9516	394.560015157884	1.398015157884
0	9555	396.507170047158	1.753170047158
0	9567	397.066416345111	0.720416345111
0	9617	399.471509754146	1.534509754146
0	9643	400.080786803306	0.551786803306
0	9724	403.537985688396	2.416985688396
0	9806	406.019961520712	1.715961520712
0	9816	406.129363014782	3.417363014782
0	9853	407.844146206133	0.356146206133
0	9859	408.158945828879	2.262945828879
0	9895	410.316004923197	1.237004923197
0	9931	411.909796583508	1.238796583508
0	9973	414.06562203934	1.80262203934
0	10050	417.194481918391	1.748481918391
0	10055	417.297197801293	3.442197801293
0	10071	418.18879179633	1.15079179633
0	10100	420.022088244003	1.392088244003
0	10144	421.923703891609	0.110703891609
0	10164	422.42446221364	2.20246221364
0	10199	423.97484211261	0.56984211261
0	10237	425.495023607246	0.498023607246
0	10347	429.26793060715	2.67893060715
0	10405	431.46341753514	1.69141753514
0	10422	432.171923644014	3.991923644014
0	10425	432.174100607825	0.810100607825
0	10493	435.566850582963	2.610850582963
0	10511	436.439172973697	1.892172973697
0	10548	438.056060607055	1.917060607055
0	10608	440.129648767548	0.806648767548
0	10649	442.647438027575	1.733438027575
0	10652	442.694642236482	4.963642236482
0	10755	445.832735784611	1.734735784611
0	10823	448.126593316977	0.845593316977
0	10836	448.649943527813	6.143943527813
0	10839	448.775654333285	3.085654333285
0	10910	451.497728362012	1.032728362012
0	10919	451.88754701247	3.01454701247
0	10982	454.02557959113	0.37757959113
0	10987	454.194619452439	2.137619452439
0	11039	456.546984070406	1.306984070406
0	11114	459.455640216145	1.031640216145
0	11194	462.311339606623	0.704339606623
0	11238	463.551196790225	3.536196790225
0	11347	466.292701577585	1.501701577585
0	11372	466.705709548171	0.323709548171
0	11452	468.938856798232	0.964856798232
0	11537	471.650149519626	0.492149519626
0	11561	472.52313908911	9.32413908911
0	11565	472.648037610018	15.816037610018
0	11585	473.22828559209	0.47928559209
0	11657	475.295199420971	5.729199420971
0	11777	478.671145866034	2.738145866034
0	11796	479.1645923594	0.0485923594
0	11820	480.613143760157	3.088143760157
0	11836	480.994922555623	6.653922555623
0	11850	481.360437472866	0.652437472866
0	11997	487.077017446314	3.185017446314
0	12037	488.533154815693	3.050154815693
0	12053	488.881734685537	6.581734685537
0	12057	488.943315983305	0.276315983305
0	12113	491.712117207536	1.453117207536
0	12146	492.785934142324	0.935934142324
0	12152	493.13926146202	6.06426146202
0	12172	494.027237637377	0.585237637377
0	12215	496.206989540708	1.172989540708
0	12304	499.218262374159	2.592262374159
0	12322	499.6452477478	1.4282477478
0	12343	500.157185537145	0.348185537145
0	12423	503.72990470868	2.32890470868
0	12444	504.698914408482	1.705914408482
0	12453	505.096424696346	0.512424696346
0	12502	507.645739968492	1.469739968492
0	12575	510.715195882144	2.947195882144
0	12650	513.31833055403	3.95833055403
0	12692	514.480443311296	3.529443311296
0	12711	515.280871521927	1.145871521927
0	12733	516.496295536999	3.953295536999
0	12783	518.025491138751	0.707491138751
0	12809	519.013867334606	3.286867334606
0	12817	519.179238594145	0.269238594146
0	12840	520.690779043199	0.1887790432
0	12852	522.23604970218	0.14204970218
0	12927	526.606759741125	2.921759741126
0	12930	526.624521910755	1.347521910755
0	12955	527.667067094577	0.798067094577
0	13003	529.380375357045	0.919375357045
0	13029	530.787071618365	0.735071618365
0	13084	533.865270222809	2.221270222809
0	13087	534.34994657899	1.11394657899
0	13201	538.259806247498	3.431806247498
0	13230	539.488675194536	3.069675194536
0	13262	540.236277660303	2.225277660304
0	13273	540.618927515879	1.01592751588
0	13300	541.647309274512	0.452309274512
0	13330	544.298218186633	1.512218186634
0	13375	546.266631328706	0.296631328706
0	13406	548.081962582398	3.703962582398
0	13436	549.556838084038	0.403838084038
0	13442	549.590057656333	2.028057656333
0	13660	557.30540521342	1.78540521342
0	13665	557.365157266797	5.028157266797
0	13669	557.452805921398	0.340805921399
0	13675	557.817742487229	3.888742487229
0	13683	558.016018220071	7.271018220071
0	13701	559.19874744762	0.494747447621
0	13773	561.95059659993	1.65459659993
0	13803	562.871646131901	0.984646131902
0	13940	567.526935319747	4.047935319747
0	14069	572.361995233728	0.923995233728
0	14075	572.481099683916	2.635099683916
0	14110	573.221579164339	6.558579164339
0	14113	573.229255200084	4.975255200084
0	14133	573.891180266763	0.861180266763
0	14152	574.699702331824	9.628702331824
0	14203	576.9139482231	0.7009482231
0	14229	578.408553510795	3.787553510795
0	14258	579.746144961033	0.349144961033
0	14266	579.977175101186	2.172175101186
0	14300	581.381888896244	0.393888896244
0	14371	585.152042520427	2.572042520427
0	14384	586.037410966765	1.865410966765
0	14463	588.611888205494	2.847888205494
0	14482	588.947934343238	1.592934343238
0	14544	590.555620457017	1.608620457017
0	14551	590.581998855693	0.042998855693
0	14593	593.062234405678	0.931234405678
0	14647	595.376971119538	1.654971119538
0	14677	596.838749972539	1.524749972539
0	14741	598.913613396256	2.007613396256
0	14767	599.857552053196	1.359552053196
0	14824	602.048433045839	0.367433045839
0	14841	602.784935547885	2.695935547885
0	14868	604.122315169633	0.849315169633
0	14918	606.298655489806	1.433655489806
0	14940	607.243691926832	0.787691926832
0	14963	609.405839521237	1.357839521237
0	14989	610.712818259329	1.072818259329
0	15015	611.982791087145	0.750791087145
0	15063	614.902656042295	2.079656042295
0	15093	616.061924379097	0.054924379097
0	15121	617.464987984839	3.049987984839
0	15134	617.858163651278	0.259163651278
0	15187	620.940569122303	1.750569122303
0	15195	621.137201597178	0.355201597178
0	15285	624.555127175173	2.181127175173
0	15347	626.504411807292	0.947411807292
0	15357	626.864361744548	2.898361744548
0	15446	629.789584862036	2.640584862036
0	15487	630.805957654251	2.064957654251
0	15506	631.545288894005	1.212288894005
0	15580	633.6756226279	1.7516226279
0	15607	634.550220765884	1.034220765884
0	15683	638.061913768073	1.361913768073
0	15706	638.802029760655	0.511029760655
0	15726	639.883451399423	4.775451399423
0	15735	640.193701548155	0.310701548155
0	15809	643.782689029544	0.715689029544
0	15838	644.939325103386	3.464325103386
0	15855	645.392771699722	0.734771699722
0	15901	647.403710783606	1.153710783606
0	15979	650.383326059319	2.541326059319
0	16019	652.003994264981	2.569994264981
0	16033	652.589465932269	1.564465932269
0	16112	655.439417871913	2.822417871913
0	16192	657.654607221462	0.262607221462
0	16253	659.113284429087	4.904284429087
0	16317	661.677325499707	2.693325499707
0	16380	663.210596760616	2.634596760616
0	16469	665.805562181616	3.637562181616
0	16532	667.227796563791	3.468796563791
0	16537	667.25433600884	0.31133600884
0	16547	667.610747638566	11.809747638566
0	16556	667.866803436399	2.515803436399
0	16609	669.876263727538	1.341263727538
0	16629	670.365076810421	0.239076810421
0	16681	672.580025184994	0.862025184994
0	16740	674.55003841649	1.24003841649
0	16815	676.820354752541	1.918354752541
0	16852	678.250932605818	1.757932605818
0	16893	680.121220655919	2.036220655919
0	16898	680.344036110903	0.667036110903
0	16962	683.413309807232	2.144309807232
0	17008	684.806006795759	1.946006795759
0	17062	686.881486071217	0.837486071217
0	17129	689.583693781671	0.356693781671
0	17139	690.014109557603	5.562109557603
0	17165	690.862714994655	3.226714994655
0	17226	692.749069077711	0.338069077711
0	17243	693.586443240916	2.767443240916
0	17284	694.755407613269	0.752407613269
0	17337	696.634120777472	1.040120777472
0	17380	698.197772230347	1.011772230347
0	17439	700.529647253773	1.751647253773
0	17484	702.36839852079	0.40739852079
0	17504	703.297714068	2.927714068
0	17554	705.633804826966	2.080804826966
0	17576	706.530611869267	1.385611869267
0	17601	707.502078365523	0.765078365523
0	17651	709.197690309635	0.869690309635
0	17765	713.92779350539	2.41579350539
0	17813	715.465131879121	0.770131879121
0	17821	715.965766362617	6.045766362617
0	17859	717.377147311789	1.090147311789
0	17866	717.764248832537	4.660248832537
0	17900	718.665779172379	0.786779172379
0	18020	722.608174635844	3.137174635844
0	18024	722.649896830578	1.587896830578
0	18077	724.505191251245	1.851191251245
0	18213	728.03011972322	3.78411972322
0	18227	728.32706914133	2.48906914133
0	18237	728.703754635429	1.274754635429
0	18251	729.085270577046	0.064270577046
0	18298	731.995379030593	1.382379030593
0	18322	732.617716838449	0.412716838449
0	18351	735.032252172706	1.236252172706
0	18396	737.250510392178	0.270510392178
0	18441	739.361852148699	3.973852148699
0	18484	740.936983978023	2.364983978023
0	18506	741.935730530867	0.180730530867
0	18542	743.931376073732	3.768376073732
0	18546	743.960677723347	0.613677723347
0	18614	747.741790641065	1.211790641065
0	18632	748.376738478765	3.437738478765
0	18691	751.435022918013	3.313022918013
0	18701	751.66119589826	1.94719589826
0	18758	754.019683009392	2.713683009392
0	18764	754.163633264299	1.266633264299
0	18905	759.601831385108	0.337831385108
0	18918	760.53490613283	4.45390613283
0	18924	760.698921881607	6.209921881607
0	18946	761.475737918473	0.619737918473
0	18961	762.285517819446	4.612517819446
0	19005	764.108983176506	1.660983176506
0	19017	764.515569904518	0.475569904518
0	19065	766.647318848521	1.016318848521
0	19102	768.074195483051	0.851195483051
0	19146	770.499460321224	1.684460321224
0	19170	771.849385879829	1.442385879829
0	19194	772.799371277935	0.801371277935
0	19216	774.931105145175	1.341105145175
0	19245	776.427499956518	1.245499956518
0	19274	777.64544035623	0.87144035623
0	19324	780.283296363887	1.918296363887
0	19344	781.233131119722	1.276131119722
0	19373	782.21671027878	0.66771027878
0	19412	784.034801807854	0.893801807854
0	19458	786.141822547499	1.409822547499
0	19504	787.553275509289	1.229275509289
0	19567	790.659144692129	1.151144692129
0	19594	791.501572653231	0.402572653231
0	19597	792.059459086042	4.143459086042
0	19696	796.059271618822	1.776271618822
0	19728	797.404312451655	1.529312451655
0	19758	798.549216164514	5.858216164514
0	19761	799.016938928794	1.550938928794
0	19797	800.229266075745	1.171266075745
0	19854	802.284259570604	1.634259570604
0	19877	803.75258306834	1.51058306834
0	19899	804.556751517248	0.723751517248
0	19928	805.704466540476	0.279466540476
0	20000	809.277898672093	2.260898672093
0	20013	809.929813513915	1.321813513915
0	20033	811.279981207259	1.079981207259
0	20057	813.000648207263	1.208648207263
0	20184	817.066402118941	2.091402118941
0	20237	819.175750000101	1.016750000101
0	20277	820.636368076924	0.885368076924
0	20284	821.023161697854	7.639161697854
0	20318	822.162688795107	0.820688795107
0	20336	822.911482809852	6.344482809852
0	20396	824.766700343964	1.832700343964
0	20494	827.872009781088	3.346009781088
0	20516	828.445288057413	0.736288057413
0	20621	832.186416714939	1.293416714939
0	20652	833.340407078897	7.222407078897
0	20704	834.961541753641	2.476541753641
0	20725	835.66511749594	1.58911749594
0	20788	837.763727063729	0.503727063729
0	20866	841.090848715077	0.647848715077
0	20888	842.026137755529	6.358137755529
0	20942	843.819666118383	4.967666118383
0	20980	845.088478498946	1.461478498946
0	20995	845.401448879341	16.100448879341
0	21012	845.999705147072	0.780705147072
0	21050	847.603703579436	0.793703579436
0	21056	848.145220729911	6.110220729911
0	21071	848.833895387098	0.431895387098
0	21095	850.433705903721	0.439705903721
0	21172	853.671100893711	2.085100893711
0	21284	856.408287944987	0.047287944987
0	21327	857.476132888106	4.299132888106
0	21383	859.410447130337	1.457447130337
0	21410	860.165913417989	0.621913417989
0	21420	860.947401629325	6.178401629325
0	21500	863.549921362444	2.413921362444
0	21527	864.90207625083	0.58207625083
0	21593	867.675460266769	4.947460266769
0	21622	868.334117590049	2.423117590049
0	21733	871.36314026489	3.86014026489
0	21811	872.956121173083	3.861121173083
0	21820	873.223624954483	2.536624954483
0	21859	874.369378464043	2.091378464043
0	21868	874.533447585924	0.663447585924
0	21966	877.526735028563	2.064735028563
0	21978	877.971930644293	0.917930644293
0	22032	879.987077764833	1.342077764833
0	22057	881.139239683538	0.902239683538
0	22115	883.648397403547	0.227397403547
0	22121	883.753845168922	1.924845168922
0	22151	886.594919949636	1.582919949636
0	22185	887.895274629594	1.291274629594
0	22240	889.530320711624	1.334320711624
0	22284	891.418591172157	1.630591172157
0	22300	892.149511921443	0.770511921443
0	22326	893.94654818263	0.97554818263
0	22385	896.819814929312	2.256814929312
0	22401	897.413374223997	1.258374223997
0	22493	900.638725796604	2.892725796604
0	22615	903.957432803906	1.435432803906
0	22652	905.096560353702	0.983560353702
0	22655	905.145636253698	5.807636253698
0	22686	906.312387581612	0.607387581612
0	22706	907.193463127837	6.263463127837
0	22732	907.707255304094	0.410255304094
0	22770	909.07064499322	0.18164499322
0	22807	911.526121930594	1.046121930594
0	22833	913.071345711113	0.999345711113
0	22869	915.31875707454	1.65475707454
0	22902	916.568853348906	1.312853348906
0	22926	917.281098692524	0.434098692524
0	22995	919.784622205145	1.345622205145
0	23066	922.880053582941	1.257053582941
0	23134	925.117348980067	1.903348980067
0	23144	925.334601669787	5.303601669787
0	23192	927.000449882734	2.194449882734
0	23263	929.390870593705	2.992870593705
0	23268	929.496310009494	1.506310009494
0	23331	931.625502103162	2.044502103162
0	23369	933.152998303836	1.979998303836
0	23492	936.756101712643	0.808101712643
0	23502	937.137168441517	2.780168441517
0	23554	938.778007302054	6.013007302054
0	23607	940.380601767977	2.840601767977
0	23611	940.629750886853	1.497750886853
0	23634	941.165176133351	0.441176133351
0	23729	944.657704914105	0.750704914105
0	23734	944.833270980634	2.518270980634
0	23763	945.94810502041	0.44910502041
0	23787	947.160083326822	0.069083326822
0	23895	950.726258265023	2.044258265023
0	23909	951.102496270824	0.828496270824
0	23935	952.544083296363	0.678083296363
0	24025	956.56794993958	3.10994993958
0	24034	956.727220146626	1.678220146626
0	24108	959.742242332091	3.101242332091
0	24117	959.861106479413	1.628106479413
0	24182	961.865721641278	0.449721641278
0	24187	962.117605432653	2.292605432653
0	24222	963.99442696465	0.98642696465
0	24292	966.4600972727	0.2680972727
0	24298	966.697195409304	2.097195409304
0	24327	968.26652092752	0.48352092752
0	24412	972.181265492454	2.806265492454
0	24453	973.236977990331	2.269977990331
0	24486	974.412140469012	0.262140469012
0	24568	977.831301025327	0.497301025327
0	24658	981.020796046471	0.503796046471
0	24673	981.551427650864	5.809427650864
0	24701	982.345211759204	3.419211759204
0	24769	984.278007405852	11.719007405852
0	24778	984.423445467669	2.314445467669
0	24787	984.769761689758	1.068761689758
0	24860	987.992290142017	1.108290142017
0	24863	988.099433193926	2.806433193926
0	24881	988.845163653678	0.369163653678
0	24921	991.743384437744	1.675384437744
0	24965	993.497284991837	1.837284991837
0	24970	993.660445870864	0.409445870864
0	25000	995.489829117375	0.646829117375
0	25062	998.745046887484	0.718046887484
0	25068	999.047769526563	2.612769526563
0	25115	1001.237207124096	1.619207124096
0	25128	1001.816891175526	0.606891175526
0	25186	1004.692710358661	1.892710358661
0	25207	1005.859028369003	1.469028369003
0	25274	1008.355458181939	2.365458181939
0	25306	1009.325079907934	1.745079907934
0	25443	1013.248126049274	2.488126049274
0	25480	1014.498502857689	2.148502857689
0	25485	1014.695452868154	5.525452868154
0	25534	1016.934305568223	2.994305568223
0	25557	1017.334326553236	0.204326553236
0	25591	1019.031358308515	0.311358308515
0	25594	1019.036386773245	3.496386773245
0	25636	1021.210577359975	0.900577359975
0	25692	1023.288005475558	1.388005475558
0	25729	1025.047258150434	1.557258150434
0	25768	1026.435961984978	1.345961984979
0	25799	1027.807783901578	1.127783901578
0	25838	1029.602700140217	1.332700140217
0	25902	1031.477858151695	1.617858151696
0	25927	1032.772801868783	1.322801868783
0	25988	1034.539839892284	1.489839892284
0	26019	1035.195009277255	0.555009277255
0	26114	1038.888409121845	2.658409121845
0	26157	1039.785713825114	0.375713825114
0	26198	1041.065275570768	3.245275570769
0	26262	1043.092434034559	0.49243403456
0	26320	1044.893670417952	0.703670417952
0	26347	1045.853850467354	4.853850467354
0	26381	1047.111896087384	1.331896087384
0	26418	1048.561305638419	1.19130563842
0	26452	1050.358105431461	1.398105431461
0	26520	1052.728185423455	0.578185423455
0	26541	1053.56962786893	3.01962786893
0	26573	1054.556452715528	0.816452715528
0	26628	1056.887102273815	1.557102273816
0	26660	1057.941998731864	1.021998731864
0	26721	1060.116071531239	1.606071531239
0	26757	1061.531102693473	1.431102693474
0	26780	1062.071788321634	0.371788321634
0	26820	1063.922458233322	0.632458233322
0	26858	1065.965707325224	1.085707325224
0	26934	1069.25029257639	2.78029257639
0	26973	1070.799228391337	2.739228391337
0	26997	1071.981145340503	2.321145340503
0	27006	1072.54040683274	1.29040683274
0	27040	1074.408016101234	1.568016101235
0	27065	1074.965793349436	0.535793349436
0	27115	1076.610187771785	0.590187771785
0	27186	1079.37666956462	1.766669564621
0	27239	1081.056136097168	1.846136097168
0	27259	1082.201897537146	1.401897537146
0	27340	1084.466499078622	2.076499078622
0	27372	1085.7436149002	1.7636149002
0	27379	1085.79074489752	0.220744897521
0	27421	1087.852058710025	0.692058710025
0	27452	1089.458059676348	0.698059676348
0	27469	1090.769720327836	0.419720327837
0	27544	1094.221595187852	2.281595187852
0	27556	1094.691013838851	1.161013838851
0	27610	1096.980219660892	1.860219660893
0	27656	1099.024109150608	0.714109150608
0	27746	1102.347761396222	0.857761396222
0	27778	1103.219232219532	3.319232219532
0	27836	1104.830193142183	0.160193142183
0	27854	1105.572148618437	8.852148618437
0	27925	1107.8068010513	1.5368010513
0	27952	1108.433407286222	0.573407286223
0	28040	1111.672985197844	8.592985197845
0	28094	1113.30358758542	2.26358758542
0	28140	1114.942169796775	5.492169796775
0	28166	1116.121489984432	1.901489984432
0	28198	1117.808221186251	0.398221186251
0	28227	1119.079473327707	3.259473327708
0	28352	1123.530927386736	10.900927386736
0	28355	1123.536584270183	2.946584270184
0	28402	1124.79515704051	1.02515704051
0	28407	1124.928581055572	5.928581055572
0	28462	1126.853461657356	4.673461657356
0	28500	1127.993724961968	2.623724961969
0	28508	1128.499990673682	1.539990673682
0	28701	1134.148537079591	5.598537079591
0	28786	1136.91229115038	5.18229115038
0	28789	1136.948707593113	6.808707593113
0	28798	1137.104461100778	3.774461100778
0	28841	1138.25175303471	3.33175303471
0	28881	1139.30510347007	1.20510347007
0	28917	1140.41009431993	0.72009431993
0	28920	1140.483613152624	3.973613152624
0	28954	1142.782631224105	1.502631224105
0	28977	1143.414201914609	0.534201914609
0	29059	1146.776315718773	0.716315718773
0	29064	1146.976294501915	2.506294501915
0	29102	1148.548307689923	0.898307689923
0	29209	1153.105346855144	0.675346855144
0	29256	1154.131481064656	3.301481064656
0	29259	1154.334942081548	0.314942081548
0	29265	1154.447276241746	5.207276241746
0	29292	1156.411390528526	0.801390528526
0	29313	1157.689193262882	0.489193262882
0	29382	1160.463500358664	1.673500358664
0	29405	1161.442176506382	1.052176506382
0	29450	1162.85346803245	0.87346803245
0	29462	1163.739346766641	0.169346766641
0	29499	1165.764589607273	0.604589607273
0	29586	1168.784912539477	2.034912539477
0	29627	1170.081533676659	1.741533676659
0	29652	1171.311044519408	1.371044519408
0	29692	1172.699647848391	1.169647848391
0	29745	1175.418654209559	0.708654209559
0	29751	1175.769907780952	2.649907780952
0	29811	1178.194653037724	0.304653037724
0	29823	1178.754288595561	2.454288595561