version 2
run General-0-20150907-15:39:47-8086
attr configname General
attr datetime 20150907-15:39:47
attr experiment General
attr inifile omnetpp.ini
attr iterationvars ""
attr iterationvars2 $repetition=0
attr measurement ""
attr network CloudDataCenterTS
attr processid 8086
attr repetition 0
attr replication #0
attr resultdir results
attr runnumber 0
attr seedset 0

vector 0  CloudDataCenterTS.sink  responseTime_0  ETV
vector 1  CloudDataCenterTS.sink  delayTime_0  ETV
vector 2  CloudDataCenterTS.sink  queuingTime_0  ETV
vector 3  CloudDataCenterTS.sink  serviceTime_0  ETV
vector 4  CloudDataCenterTS.sink  responseTime_1  ETV
vector 5  CloudDataCenterTS.sink  delayTime_1  ETV
vector 6  CloudDataCenterTS.sink  queuingTime_1  ETV
vector 7  CloudDataCenterTS.sink  serviceTime_1  ETV
0	38	0.817298619172	0.817298619172
0	96	2.24520144489	0.42341844489
0	105	2.407569710269	1.509009710269
0	166	5.323848335321	0.584945335321
0	217	7.871278710625	2.779216710625
0	220	7.912498232525	4.211755232525
0	231	8.475036386984	0.068064386984
0	251	9.251507237062	0.195089237062
0	348	11.583859545631	1.202210145631
0	355	11.67874034245	1.86964834245
0	378	12.415695008644	0.989435608644
0	384	12.563344110648	2.255380110648
0	437	13.985389085208	0.771639685208
0	480	15.744686252588	2.379705852588
0	499	17.589553700183	0.379353300183
0	520	19.325994141275	0.501793741275
0	532	20.452053349266	0.111312949266
0	585	22.488081637207	0.872111237207
0	590	22.598113389573	0.827412989573
0	608	23.605928436714	0.413868036714
0	643	24.089405045521	0.155575645521
0	689	24.915050961294	0.226861561294
0	742	26.032946025645	0.131933625645
0	766	26.682653049611	1.033082649611
0	786	26.976694157158	2.433782757158
0	792	27.133772312689	3.406145912689
0	844	29.67313698471	0.29645858471
0	893	30.423927968273	0.368156568273
0	936	31.561790117098	1.610579717098
0	941	31.589607962807	0.434926562807
0	947	31.689245042975	0.347137642975
0	979	32.444914834262	0.964778434262
0	1057	33.935287195063	1.519088795063
0	1162	35.780026867229	7.001094467229
0	1181	36.367916720031	0.985765320032
0	1193	36.443832346995	2.069700946995
0	1205	36.717648722585	0.276757322586
0	1332	39.188468826201	5.927842426201
0	1335	39.190899174386	4.924402774386
0	1350	39.497008528371	1.828274128372
0	1376	40.143142763415	3.167186363416
0	1389	40.312527737998	1.575723337999
0	1416	40.735025336377	0.491580936378
0	1431	40.88148334397	3.625249943971
0	1434	40.884031186298	0.180572786299
0	1469	41.81338295228	1.096259952281
0	1495	42.729767074275	0.192824074276
0	1507	46.227561646589	0.11702864659
0	1548	47.322161646453	0.579291646454
0	1567	48.004305639928	1.204108739929
0	1609	48.933027147263	0.788580247264
0	1629	49.362546059999	0.50716416
0	1685	50.413776786696	0.902748886697
0	1713	51.158092838501	2.430767938502
0	1728	51.560589024335	1.666860124336
0	1763	53.014603837806	0.616964937807
0	1795	54.404965454997	0.828136554998
0	1882	56.815916826647	0.495088926648
0	1888	56.826396143011	1.246327243012
0	1899	58.927943410661	0.066815510662
0	1946	61.948887198793	0.429098548794
0	1985	63.109266472145	1.598878572146
0	1990	63.153436378993	1.492316728994
0	2021	63.961355228706	0.458955578707
0	2055	64.694044786532	0.989295136533
0	2065	64.944672540178	0.435125890179
0	2083	66.407353611687	0.132066961688
0	2124	67.066611066531	0.318260416532
0	2135	67.187201197874	0.753572547875
0	2172	67.869373066493	0.780675416494
0	2223	68.703192661822	0.824130011823
0	2240	68.876336773028	0.148053123029
0	2260	69.439024544558	2.064305894559
0	2290	71.243933506348	0.294139856349
0	2359	73.159085947436	1.616668297437
0	2402	75.615377063298	0.229949413299
0	2426	76.166751415939	0.42830376594
0	2444	76.38229724409	0.113127594091
0	2477	78.438316793707	0.039647143708
0	2558	80.178037740172	0.224249090173
0	2572	80.355448457796	1.581039807797
0	2598	81.266113837577	0.234495187578
0	2641	84.697532235316	0.540443585317
0	2703	86.359509358329	0.767706708331
0	2743	87.467694065288	0.16144341529
0	2782	88.374108053057	2.147177403059
0	2815	88.926875049857	1.136988399859
0	2830	89.242289953165	0.892442303167
0	2845	89.324748335973	4.665348685975
0	2869	89.714943805727	1.256549155729
0	2884	89.969269897565	0.666987247567
0	2900	90.47115553035	0.366320880352
0	2957	92.290344997166	0.739370347168
0	2961	92.354236386867	1.190391736869
0	2998	93.934340792698	0.1147361427
0	3016	94.797612535963	0.875686885965
0	3065	96.918486142584	0.771650492586
0	3129	98.205477062702	1.182951412704
0	3154	99.057239036299	1.600367386301
0	3182	100.202841981967	3.285929331969
0	3244	104.482376821867	0.260115171869
0	3328	108.533611236406	1.601304586408
0	3343	108.834124783226	2.084357133228
0	3363	109.275219229234	0.458982579236
0	3374	109.457032699282	2.884591049284
0	3382	109.815836331945	0.469596681947
0	3412	110.38061718953	0.511507539533
0	3484	115.283921991773	0.708750741776
0	3508	116.224055747666	1.700797097669
0	3516	116.700022430943	2.781062780946
0	3540	118.602248501519	0.317117251522
0	3554	118.946593395254	0.399133145258
0	3580	119.418693681692	0.424980431696
0	3629	121.501674808133	0.385540558137
0	3644	121.601647147555	1.221643897559
0	3663	121.953783072966	0.42366982297
0	3685	122.282465401596	0.7336566516
0	3697	122.39874674921	0.227340999214
0	3741	123.694377084685	0.162175334689
0	3757	123.953451429243	1.358388679247
0	3780	124.407784592867	0.150026042872
0	3798	124.81199421758	1.247435667585
0	3891	127.735136280092	2.616453730097
0	3909	130.184237929945	0.18642537995
0	3985	133.724941633969	0.778129083974
0	4008	134.653821804749	3.704179254754
0	4017	134.961166793997	0.704564244002
0	4056	135.557968136625	0.25786058663
0	4086	136.27366430781	0.726697757815
0	4120	137.109235374664	2.044652824669
0	4174	139.284916750994	2.392600200999
0	4218	140.769152267761	0.362355717766
0	4267	141.78875582187	1.030378871875
0	4277	141.993140092606	0.861093142611
0	4306	142.954409523583	2.254104973588
0	4336	144.913381796856	0.034644846861
0	4357	145.459260507945	0.38255555795
0	4391	147.359546742004	0.354481792009
0	4410	148.64023246657	0.497627516575
0	4435	150.05072210736	0.777757157365
0	4559	154.321536119331	0.909305169336
0	4570	154.505631688545	2.32889673855
0	4577	154.752049751497	1.487414801502
0	4607	155.734263981623	0.901653031628
0	4612	155.853493532862	4.310688582867
0	4651	158.143630223056	0.075677273061
0	4665	158.469703018579	1.289252068584
0	4696	160.186259346008	1.384938396013
0	4774	162.467669143503	1.605528193508
0	4787	162.559505580811	0.086082630816
0	4812	162.813939894125	0.58323494413
0	4842	163.181315582589	1.559655632594
0	4854	163.345246888377	1.928934938382
0	4861	163.48769492174	0.753631971746
0	4882	164.029950866405	1.002936916411
0	4918	166.37633530621	0.166223656216
0	5020	168.075074926269	0.987492276275
0	5025	168.101720215183	1.256057565189
0	5039	168.27605937641	0.304690726416
0	5073	169.881441675979	3.697327725985
0	5079	170.02863482306	3.651648173066
0	5093	170.211790268662	0.137217618668
0	5141	171.218566735456	0.447453085463
0	5221	173.228638369996	0.465788720003
0	5258	174.723610458022	2.117236808029
0	5264	174.942536495946	5.596487845952
0	5270	175.049555007428	2.153364357436
0	5275	175.08964520177	4.822811551776
0	5292	176.133204387946	0.416373737954
0	5310	177.343412606734	0.252241956742
0	5329	179.750500270888	0.318839620896
0	5349	181.045407445461	0.230426795469
0	5388	182.164654994011	0.471459344019
0	5420	182.613757113471	0.685905463479
0	5426	182.692787750576	0.424295200584
0	5449	183.297002886863	1.093623236871
0	5482	185.097906882527	0.176854332535
0	5547	187.818259428263	0.776306878271
0	5565	188.0864451535	0.179242603508
0	5649	190.494523350924	0.625580800932
0	5670	190.880946232114	3.638551682122
0	5714	192.280450006284	5.569407456292
0	5753	193.565404465482	0.10698291549
0	5762	193.679287784482	4.22307523449
0	5769	193.802100426795	3.325878876803
0	5831	195.844144059628	1.128482509636
0	5873	196.81881320578	0.418252655788
0	5900	198.45279909515	2.741673545158
0	5915	198.965920969678	0.675260419686
0	5932	200.149438708219	0.374538158227
0	5945	200.294027347206	0.092590797214
0	5978	201.772631630459	0.055125080467
0	6009	202.400839919105	0.028480049113
0	6059	203.434101979108	1.065798429116
0	6094	203.807728423258	0.975577553266
0	6127	204.182520666141	0.452248796149
0	6133	204.306234499743	0.704542629751
0	6143	204.416234843735	1.025075973743
0	6162	204.7722311915	0.096855321508
0	6168	204.910790847802	1.07755097781
0	6215	208.461244041053	0.545908171061
0	6269	209.450857730509	0.241082860517
0	6314	210.306688782881	0.832643912889
0	6333	210.649375979212	1.79889510922
0	6388	211.980792589866	0.820095719874
0	6401	212.106069078241	2.238522208249
0	6436	212.815162418888	0.733108548896
0	6464	213.549614514169	0.064157644177
0	6557	215.451554262908	0.585184392916
0	6560	215.459170098387	3.536049228395
0	6566	215.517703925922	1.46635205593
0	6585	215.788886944193	0.130878074201
0	6644	217.304351330125	0.391052460133
0	6672	217.729098036686	1.174760166694
0	6689	218.198965459143	9.753667589151
0	6721	218.711529892819	1.184792022827
0	6733	218.872872879418	0.196395009426
0	6777	220.493286180938	5.150437310946
0	6783	220.569030232432	8.19846336244
0	6815	221.08039993516	0.489082065168
0	6824	221.305336975762	0.23610110577
0	6872	222.264325014598	0.424553244606
0	6895	222.627919937176	0.556727167184
0	6899	222.744226338273	0.962982468281
0	6969	224.674681583156	1.101078813164
0	6998	225.401846630447	1.631781860455
0	7020	226.548081343401	1.892255573409
0	7046	227.11809214528	0.236186375288
0	7080	227.849567828593	0.748194058601
0	7159	230.31763673255	0.623812962558
0	7276	232.883590556021	0.580963786029
0	7308	233.521910673399	0.683879903407
0	7360	234.615976060501	3.313732290509
0	7369	234.964467949302	1.08918717931
0	7396	235.754931604088	3.818755834096
0	7448	236.686523200612	0.56700843062
0	7495	237.645801309896	1.045829539904
0	7530	239.115092709269	3.708961939277
0	7584	240.514596907173	0.249150137181
0	7595	240.636159007067	0.509299237075
0	7602	240.722657941411	4.447857171419
0	7635	241.526549366677	4.532519596685
0	7651	242.126077241102	1.07579347111
0	7675	243.911553140501	0.447249370509
0	7711	245.006567890096	0.928660120104
0	7756	247.850489988628	1.675942218637
0	7774	248.949448796251	0.43103102626
0	7786	249.260917605072	0.101525835081
0	7809	249.710997066565	0.127082196574
0	7839	249.973182202246	0.114803332255
0	7861	250.301783713108	0.433590403117
0	7919	252.281129223014	2.724656453023
0	7975	254.335791669312	1.269348359321
0	8038	256.580737720422	0.864288410431
0	8055	256.774100864601	3.00763155461
0	8109	257.913607923971	1.23717161398
0	8114	257.925390378817	1.077415068826
0	8156	258.85003034798	0.212603537989
0	8160	258.8965039238	0.358298613809
0	8196	259.672888485049	3.853887175058
0	8266	262.498316913997	0.592071104006
0	8295	263.61831821847	1.412744408479
0	8329	264.628988896563	5.483343086572
0	8343	265.652363243928	2.091069433937
0	8397	267.934756192765	1.179702382774
0	8410	268.086036135034	0.727750025043
0	8418	268.376255247641	1.03443243765
0	8480	270.483319541741	1.25839343175
0	8501	271.922684923829	0.048568813838
0	8524	273.290653717044	0.477035607053
0	8585	275.688666660423	0.781165650432
0	8602	276.397564620522	1.225128610532
0	8649	277.448335257595	0.446359247605
0	8680	278.351364516198	0.284319406208
0	8695	278.534524143838	0.177206033848
0	8706	278.787183122396	3.937275012405
0	8719	279.046908016657	2.029202906667
0	8753	279.744946955488	0.379290845498
0	8807	280.995654732933	0.954642622943
0	8818	281.122072952689	1.896892842699
0	8850	281.691107229782	0.686502119792
0	8857	281.82908649853	0.35556038854
0	8885	282.38943102605	0.38987391606
0	8950	284.90631490607	0.45188479608
0	8980	285.66906989959	0.7556117896
0	8994	286.184155968695	2.403668858705
0	9035	286.992982651312	0.550584541322
0	9054	287.555388067213	1.039938257223
0	9070	287.763838045785	0.162188235795
0	9158	289.917853266905	0.582895456915
0	9205	290.905262165712	2.298682355722
0	9212	291.000367905988	0.976896095998
0	9304	292.929272304532	0.281696194542
0	9312	293.058506021162	0.458029211172
0	9339	293.504614290025	0.260866180035
0	9354	293.912553106969	2.210455296979
0	9378	294.532313372134	4.170495562144
0	9408	295.255193059735	3.105955249745
0	9429	295.879879010904	0.948910900914
0	9442	296.249162550597	0.837316440607
0	9501	298.771542510672	0.877327400683
0	9531	299.188454419268	0.334947309279
0	9617	301.287150926855	1.681307816866
0	9628	301.436182813192	0.518379703203
0	9665	302.371645305852	4.606469195862
0	9674	302.415867988465	0.500765878476
0	9684	302.753684672647	3.634360562658
0	9700	302.943342891407	0.159563781418
0	9717	303.113589849565	0.721971739576
0	9746	303.71618752599	5.535063416001
0	9760	303.887853866994	0.131472757005
0	9815	305.003804149542	0.450679039553
0	9821	305.206302938174	1.086842828185
0	9875	306.348142423927	0.872037313938
0	9890	307.359702614277	2.108639504288
0	9905	307.655312619021	4.599977509032
0	9941	308.556010342337	1.060325232348
0	9954	308.821436508114	0.896839398125
0	10016	309.917450328045	0.648900218056
0	10037	310.589010258879	1.46185314889
0	10053	310.973790346732	0.157983236743
0	10085	311.668952853435	1.799247743446
0	10091	311.889727148828	0.908627038839
0	10136	313.368365881928	1.196285771939
0	10162	314.862335084708	1.763615974719
0	10175	316.601815757259	0.27777664727
0	10230	322.347032364865	2.587373254876
0	10262	324.636080796168	0.088458686179
0	10367	326.585697470055	0.159666360066
0	10376	326.681426093682	1.087921983693
0	10407	327.759453279579	2.96908616959
0	10417	328.24706082895	2.334715718961
0	10432	328.693015598449	0.077334488461
0	10456	329.234919515503	0.247622405515
0	10473	329.561968358007	5.911399248018
0	10567	333.366785394242	2.126998284254
0	10570	333.39778108825	0.369518978262
0	10591	334.433518301531	1.805051191543
0	10613	335.409801115948	0.39872900596
0	10653	338.285334754751	0.365897644763
0	10660	338.450964124141	1.122362014153
0	10680	339.247295388105	0.609492278117
0	10735	341.008783074194	1.023529964206
0	10791	342.569881125058	0.58971601507
0	10835	344.108771170804	0.998146060816
0	10870	344.796739098326	0.558353988338
0	10928	345.927710705547	1.370932595559
0	10945	346.152188588786	0.255139478798
0	10963	346.480318447453	5.739853337465
0	10989	346.925170265891	2.036131155903
0	11009	347.226507759482	1.296710099494
0	11077	349.680318565124	0.499459905136
0	11109	350.445801111372	4.540836651384
0	11116	350.634192114624	2.151914454636
0	11134	351.364030426812	2.158558166824
0	11166	351.98123923982	0.082266979832
0	11170	352.030357753327	0.458595493339
0	11203	353.339029213887	0.265986953899
0	11281	355.489458098005	0.781183838017
0	11287	355.584518654761	1.650761394773
0	11370	359.099392243491	1.417907983503
0	11395	359.62668086531	0.770339605322
0	11428	360.538873397777	2.599804137789
0	11455	360.917132751369	0.249105891382
0	11495	361.786004864558	0.536969004571
0	11536	362.298577617067	1.647566357079
0	11554	362.526531424572	0.564539564585
0	11576	362.82128425704	0.727458597053
0	11580	362.89962273425	0.908099074263
0	11643	368.21964005714	1.399414397153
0	11671	368.904587675368	0.282280015381
0	11698	370.106182404803	0.955730744817
0	11731	371.65038441517	0.317222755184
0	11736	371.747107735802	3.742852075815
0	11791	373.571470727471	0.755581067485
0	11805	373.901061848044	1.603400188058
0	11872	375.554382840189	0.207445180203
0	11939	377.812921375247	0.544828715261
0	11959	378.475207645281	3.605267985295
0	11972	379.427066407892	3.300593747906
0	12013	381.236211829337	0.393700169351
0	12051	381.732539965496	0.41486030551
0	12095	382.515366069157	0.840970409171
0	12119	382.904645685222	0.362495025236
0	12165	384.371443689685	1.237990029699
0	12196	385.039488603118	1.036419943132
0	12221	385.511450396155	4.476842736169
0	12226	385.551283183408	0.466114523422
0	12245	386.066455292408	5.347352632422
0	12271	386.930217876007	0.862811216021
0	12315	388.651932370683	1.392275710697
0	12336	389.627170557713	0.259733897727
0	12379	390.535760808799	1.106508048813
0	12394	390.921793268185	0.848815508199
0	12467	392.506859282891	0.126778522905
0	12536	393.758650605057	2.131339845071
0	12540	393.843446946181	2.423839186195
0	12556	394.133814105111	0.917526345125
0	12587	395.544500697387	1.281022937401
0	12590	395.579806982584	2.813232222598
0	12654	399.911646620323	1.759528860337
0	12685	400.634430748871	0.251542988885
0	12695	400.960041960947	1.717674200961
0	12749	403.526248877364	0.543691117378
0	12774	404.264391540754	0.632422780768
0	12822	405.634325765316	0.277195005331
0	12853	407.019085331037	2.384556571052
0	12893	408.797558121109	0.806297361124
0	12896	408.799804723719	0.396842963734
0	12928	409.715483849282	0.312304089297
0	12974	411.140128655977	0.680508895992
0	12986	411.510321174726	2.208957414741
0	13012	411.85756012904	0.283261569055
0	13080	414.121318863919	2.585309103934
0	13119	415.500117205673	0.717369645688
0	13131	416.366158185121	4.358160625136
0	13169	417.515829005722	1.056151445737
0	13194	418.679587529495	1.38964896951
0	13218	419.059260340165	0.32301178018
0	13245	419.320854984695	0.10703742471
0	13258	419.633563260158	0.579545700173
0	13274	419.826517900845	0.59077294086
0	13281	419.972711314863	0.170836354878
0	13351	422.368507447546	0.518052487562
0	13406	425.491418842636	0.453083882652
0	13418	425.707296704476	0.275744744492
0	13464	427.830572895948	1.508166935964
0	13477	429.315502688252	0.166576728268
0	13536	433.804966129953	1.909790169969
0	13576	435.119053527596	0.521520567612
0	13659	437.488040973391	0.373028013408
0	13670	437.777607879379	1.731924919395
0	13713	438.474322013352	0.661626663369
0	13735	438.717831286719	4.598875326735
0	13793	439.940083001795	2.816098651812
0	13807	440.451943116549	2.157268766566
0	13814	440.647380239573	2.16754988959
0	13880	442.298379379432	1.549579029449
0	13891	442.574420819395	1.189570469412
0	13897	442.659909609735	0.621606259752
0	13940	446.19812831714	0.249684967157
0	14009	447.487512755122	0.185487405139
0	14119	449.920196650777	1.235009300794
0	14170	451.1450090933	1.979529743317
0	14195	451.941943781355	1.127702431372
0	14199	451.989559263332	5.811013913349
0	14206	452.053077195369	2.322385845386
0	14210	452.156302562396	4.722065212413
0	14240	452.985315725594	6.193803375611
0	14245	453.081318446173	0.53881709619
0	14248	453.112751443867	7.058994093884
0	14307	455.192562330838	0.766088980855
0	14312	455.203641837258	1.547030487275
0	14382	457.509061052558	1.290937702575
0	14411	458.408763536083	1.6708181861
0	14451	459.821827584835	0.495802234852
0	14494	460.99460168088	0.911722330897
0	14499	461.057341444648	3.067886094665
0	14550	461.897809651728	0.600170301745
0	14567	462.343608178164	0.906854028181
0	14577	462.611628676664	1.283906526681
0	14638	464.626159267243	0.97010511726
0	14673	465.812391396796	1.390798246813
0	14733	468.358751490851	0.759728340868
0	14775	469.196173771955	1.142862621972
0	14800	469.562260203644	0.339973053661
0	14834	470.187262245164	1.695097095181
0	14863	470.77647649137	0.279339341387
0	14910	471.733584034326	0.213675884344
0	14920	471.77295620959	1.023679059608
0	14964	472.188421085837	0.072684935855
0	14968	472.256022257718	0.460600007736
0	15075	474.848054732868	0.134097582886
0	15137	476.613750293987	0.886481144005
0	15152	476.75688877701	0.103155627028
0	15190	477.995200654295	6.131339504313
0	15203	478.364134628907	2.069497478925
0	15262	479.18325605485	0.517097904868
0	15267	479.211483905718	7.441322755736
0	15299	480.124056096944	1.328012046962
0	15306	480.301638445956	8.009021295974
0	15335	480.984108473577	2.288570423595
0	15383	482.042032273679	0.925116223697
0	15396	482.442544596771	4.267931446789
0	15414	482.602514019054	1.699679969072
0	15436	483.175198757718	0.634152707736
0	15444	483.356531157953	8.033015007971
0	15477	484.220585924161	0.598691874179
0	15520	485.305773597157	0.882970547175
0	15541	486.009619913158	0.901696863176
0	15571	486.766736983741	0.937154933759
0	15618	487.561700025185	0.485555975203
0	15625	487.634307531993	4.484642482011
0	15651	488.362761625269	1.790043575287
0	15657	488.449653816889	1.325572566907
0	15671	488.5982738599	0.100472609918
0	15704	489.036670523097	0.342148273115
0	15746	491.030800218767	2.149827968785
0	15790	492.462745098782	1.4455828488
0	15805	492.703010643243	0.747840393261
0	15822	493.668769745948	1.005063495966
0	15843	495.055189925604	0.581373675622
0	15871	497.523504896282	0.3786686463
0	15925	501.008429483128	1.105033233146
0	15936	502.045432706555	0.043216456573
0	15991	503.580866213929	1.023617963947
0	15994	503.617098153307	0.775249903325
0	16033	504.535936739338	0.224504489356
0	16038	504.663086236076	0.965071986094
0	16073	506.253984787902	0.84079253792
0	16136	509.1228409894	1.583718739419
0	16171	510.500883019322	0.658150769341
0	16212	511.338917094151	0.956093844171
0	16226	511.656588034564	0.147714784584
0	16257	512.509746896571	0.226801646591
0	16283	513.160558804377	2.845032554396
0	16292	513.526224854201	1.061700604221
0	16312	513.877991907274	0.135377657294
0	16352	514.897056565449	0.550963315469
0	16360	515.244211064173	0.667991814193
0	16409	518.076149235956	1.640519985976
0	16449	520.86337932742	0.73928007744
0	16466	522.282020913842	0.307331663862
0	16496	523.562255211504	0.289725961524
0	16531	524.027949071993	0.585362822013
0	16554	524.624060342241	0.344925092261
0	16562	524.756528237796	1.030191987816
0	16645	528.00787593598	1.627050686
0	16680	529.90958483089	3.24565758091
0	16684	529.936591496524	0.534644246544
0	16737	533.384760220019	0.257942970039
0	16755	533.550388925591	0.420891015611
0	16782	533.890198998795	0.229188088815
0	16839	535.354557361882	1.947751451902
0	16855	536.212478489839	2.510653079859
0	16878	536.801528127038	0.476872717058
0	16894	537.142332105745	0.343814695765
0	16909	538.020152614848	0.315134204868
0	16933	540.969807688122	0.178389278142
0	16955	541.953172150504	0.244979740524
0	16994	544.160669219692	0.982946809712
0	17027	544.745935117934	0.464882707954
0	17032	544.80090709554	0.17937668556
0	17119	546.375490927238	1.249656517259
0	17123	546.37610596862	1.489080558641
0	17169	547.939424942141	1.868572532162
0	17204	548.606121086077	1.167858676098
0	17219	548.707787693351	0.068984063372
0	17256	549.083071235947	0.510872705968
0	17274	549.40861607922	0.536298449241
0	17290	549.728247214276	0.763542084297
0	17293	549.733622856965	1.161970446986
0	17351	551.627221408619	0.70820627864
0	17362	551.921474768188	0.831407638209
0	17424	553.349386882387	1.328645752408
0	17447	553.962229575449	0.852868445471
0	17516	555.377923464327	1.25393233435
0	17548	556.415825098147	2.26573996817
0	17604	557.744682664351	0.403084534374
0	17620	558.251414828432	1.637839698455
0	17691	559.9019198166	0.581395686623
0	17718	560.311355777302	0.201354647325
0	17732	560.551081119484	1.954032989507
0	17757	561.232661832307	2.02554270233
0	17789	562.336160618291	0.086679488315
0	17866	564.581539067795	1.008584937819
0	17915	565.592716268121	1.577829138145
0	17947	566.314786685922	0.963239555946
0	17961	566.711469816097	3.606139686121
0	17981	567.516837949791	1.994913819815
0	18025	569.805653421122	1.764139291146
0	18044	570.445471990214	0.239327860239
0	18082	571.280353763037	0.276885633062
0	18092	571.600336390274	0.733477260299
0	18137	574.52143667803	0.751488548055
0	18177	575.674844794174	0.493330664199
0	18240	576.631889742248	0.642369612273
0	18244	576.726849242603	0.897265112628
0	18253	576.881754733021	0.667827603046
0	18307	577.661445416771	0.325558286796
0	18343	578.206612564823	1.315623434848
0	18367	578.681108419627	0.584504289652
0	18432	580.740524066059	0.985329936084
0	18441	580.866586744325	0.51921761435
0	18456	581.334785010948	6.568227880973
0	18511	583.534063357235	0.41213222726
0	18640	586.725052019834	6.067880889859
0	18650	586.929983774125	1.35935284415
0	18680	587.963599264266	4.452194334291
0	18716	589.026331457217	5.043330527242
0	18756	590.518541808582	2.510160878607
0	18761	590.74635924584	4.069378315865
0	18773	591.692898564308	8.523861634333
0	18833	595.33710780492	0.780305874945
0	18868	596.028858046298	2.054237116323
0	18898	596.764326971325	1.81404304135
0	18979	598.467238603673	2.589067273698
0	18989	598.556848348741	0.662857018766
0	19036	599.585010822176	3.795753892201
0	19062	600.126937308936	0.253515978962
0	19095	601.068535404059	1.734154074084
0	19114	601.318329034357	0.249977704383
0	19187	602.824026907323	1.518109577349
0	19202	603.245921744319	1.083081414345
0	19317	608.10100560885	0.666965278876
0	19339	608.432236788864	3.76167645889
0	19348	608.483500114074	0.5269283841
0	19354	608.517870805002	0.711296475028
0	19372	608.629431331394	1.00256800142
0	19378	608.899315274703	1.034182144729
0	19433	611.097363438545	0.286322708571
0	19460	611.783760954556	0.553649224582
0	19485	612.329551710738	0.246048980764
0	19543	613.745882754481	0.591420024508
0	19575	614.434621473533	0.44851574356
0	19591	614.996718952801	5.048927222827
0	19662	617.557680129021	1.257304399048
0	19681	618.25043308976	0.997004359787
0	19700	618.960738158566	0.414239428593
0	19775	623.066269411537	1.196210681564
0	19790	623.253501338737	0.104975608764
0	19838	624.671439581965	0.239345851992
0	19894	626.372946160111	0.225932430138
0	19915	627.144140151597	3.590541421624
0	19928	627.963287434539	5.848771704566
0	19944	629.212383922746	0.372770192773
0	19959	629.39082004803	0.150330318057
0	20006	630.395483269428	0.435696539455
0	20021	630.564051565101	0.346319835129
0	20060	631.162749384209	0.667104654237
0	20066	631.245351802155	0.246795072183
0	20109	632.233461583478	0.124794853506
0	20117	632.425650654212	0.72642292424
0	20168	634.337114474587	0.646107744615
0	20192	634.875704605069	0.939228875097
0	20255	637.925833400289	0.316797670317
0	20297	638.799805849772	0.8470951198
0	20345	639.910183672074	1.376265942102
0	20350	639.933140222306	0.745178492334
0	20377	641.921696594818	1.331754864846
0	20458	644.694223823242	1.90201209327
0	20465	644.909144793578	1.873107063606
0	20541	646.375450317642	3.45762858767
0	20575	647.085462849765	1.743955119793
0	20590	647.46042136869	1.371519438718
0	20623	648.46909145527	3.508113725298
0	20634	648.577986456959	2.560776726987
0	20683	649.318370620786	0.119342690814
0	20706	649.76606313975	1.154240209778
0	20716	649.998434545245	1.580802615273
0	20771	658.784581260193	1.024533330222
0	20781	658.909199989325	0.519694059354
0	20796	659.266234998186	0.533889068215
0	20845	661.203096408986	0.907900479015
0	20888	663.303254773887	0.314012843916
0	20915	664.52256191316	1.679915983189
0	20969	665.872238112816	0.859771182845
0	21002	667.519569414136	3.711222484165
0	21031	668.139923925929	0.486693995959
0	21063	669.389896032213	0.229065402244
0	21137	670.801765010535	0.190961380566
0	21181	671.614259599986	0.859111870017
0	21211	672.484808521774	1.470051791806
0	21261	674.106533567656	0.809426837688
0	21293	675.930321122823	6.802071192853
0	21350	676.413843117771	0.390329987803
0	21358	676.485383033561	0.265081903593
0	21370	676.649987575411	0.671446145443
0	21421	677.814001158102	1.562559128134
0	21427	677.889080951143	10.806474021173
0	21458	678.995053329954	9.573419699985
0	21489	679.764547529213	9.050961899244
0	21515	680.39637999611	7.089158566142
0	21550	681.253467576916	1.359277546949
0	21568	681.697632840693	2.413542810726
0	21607	682.569860632136	5.312660602168
0	21627	683.105697751589	1.340043721622
0	21687	684.931790806292	0.233786776325
0	21728	686.7656689981	10.381507968132
0	21745	687.14549290723	3.846828877263
0	21753	687.218492316158	6.125122286191
0	21789	687.857019200857	1.79604517089
0	21808	688.195108172676	1.113534142709
0	21829	688.739089525319	1.513704495352
0	21875	691.190619829059	2.079084799092
0	21914	692.739519114393	1.538214084426
0	21955	697.380113958303	0.271205928336
0	21966	697.614175554555	0.434745124588
0	22037	699.219508577862	2.541883547895
0	22071	699.876541537905	0.392151107938
0	22084	700.110813202398	1.897212772431
0	22106	700.435495554867	0.6110051249
0	22144	701.366188776223	1.233400346256
0	22187	702.545543755831	0.140747325865
0	22237	703.725520244364	1.473661814398
0	22242	703.811110182381	0.803499752415
0	22271	704.448429768607	0.140539338641
0	22310	704.929522563713	0.311311133747
0	22337	706.018752116822	0.344630686857
0	22375	707.340143025607	1.242691595642
0	22408	709.932022033966	0.340178504001
0	22483	711.788463717462	0.405210187497
0	22492	712.039004528271	1.785990998306
0	22562	714.769034875455	0.46901934549
0	22571	715.19045663293	5.612575202965
0	22577	715.345120310156	3.696894780191
0	22659	717.052886236004	0.111090206039
0	22665	717.083110000512	1.527324470547
0	22673	717.222603387818	1.028226357853
0	22678	717.359698615844	1.707701585879
0	22723	718.387051228226	0.729409198261
0	22790	720.890906085104	3.170560455139
0	22817	721.502788103555	0.41516247359
0	22908	722.886163704378	0.773703638413
0	22976	724.345838884029	0.728710918065
0	23026	725.068491747225	2.72198178126
0	23031	725.15213900622	3.011298040255
0	23050	725.468962161541	0.585334195577
0	23059	725.643360034636	3.531564404671
0	23086	726.097517579769	3.615499613805
0	23114	726.839184191708	1.803619225744
0	23125	727.104284877883	4.314858911919
0	23168	727.998650893236	3.646140927272
0	23242	732.685787093349	1.476022127385
0	23263	733.151651782012	0.481277816048
0	23288	734.458489529298	2.287287563334
0	23316	735.413109662671	0.125778696707
0	23337	735.530859432644	0.41536546668
0	23379	736.317573293909	0.902093327945
0	23391	736.45526371041	0.870100244446
0	23412	737.002021207898	1.522497741934
0	23461	738.028423643842	1.696816177878
0	23491	739.990015115008	0.120138649044
0	23574	741.950157704958	1.729375238994
0	23583	742.085744387352	2.341226921388
0	23593	742.254352609249	0.386330143285
0	23656	744.248727671662	0.619595205698
0	23672	745.197917612519	0.082845146555
0	23697	746.258571119971	0.411631654007
0	23762	747.97837635187	1.279425885906
0	23770	748.332829898056	1.057170432092
0	23855	751.236838198899	1.259698732935
0	23866	751.310596958542	1.776247492578
0	23907	752.635802048901	1.633862582938
0	23914	752.887198901555	1.580363435592