version 2
run General-2-20150920-11:46:02-10966
attr configname General
attr datetime 20150920-11:46:02
attr experiment General
attr inifile omnetpp.ini
attr iterationvars $0=62532
attr iterationvars2 "$0=62532, $repetition=0"
attr measurement $0=62532
attr network CloudDataCenterTS
attr processid 10966
attr repetition 0
attr replication #0
attr resultdir results
attr runnumber 2
attr seedset 2

vector 0  CloudDataCenterTS.sink  responseTime_0  ETV
vector 1  CloudDataCenterTS.sink  delayTime_0  ETV
vector 2  CloudDataCenterTS.sink  queuingTime_0  ETV
vector 3  CloudDataCenterTS.sink  serviceTime_0  ETV
vector 4  CloudDataCenterTS.sink  responseTime_1  ETV
vector 5  CloudDataCenterTS.sink  delayTime_1  ETV
vector 6  CloudDataCenterTS.sink  queuingTime_1  ETV
vector 7  CloudDataCenterTS.sink  serviceTime_1  ETV
0	63	2.550679231794	-1.041069777337
0	142	7.680306209533	0.386695505421
0	197	9.334043635606	0.509783964906
0	248	11.189676438181	1.398212557585
0	265	12.348160350136	-1.499387427013
0	352	16.56098729718	0.593244645034
0	375	17.494392914239	-2.221092477443
0	527	23.314847217234	-0.68133320312
0	659	27.159494949407	2.911565710177
0	671	27.533354974467	-3.996308791945
0	693	32.446161666819	-3.434751880064
0	696	32.835023225922	0.690798755205
0	762	36.959526197452	-0.81538070378
0	816	39.237710151897	-0.827474658735
0	843	40.311576436461	-2.145823973085
0	883	42.973976565229	-6.312830505686
0	993	51.544328648819	1.499597649339
0	1027	53.394654030776	-3.532874476405
0	1033	54.729171117516	3.50149031038
0	1071	58.37442280994	-9.38886442671
0	1128	68.658462942367	-0.154480143246
0	1192	71.099065400666	-9.029002474858
0	1219	72.545619042273	1.535169727382
0	1299	81.001878377128	-10.860686668987
0	1433	90.789143539134	10.459006112993
0	1464	93.227767968425	1.285250324194
0	1473	93.745781119985	-6.602276350582
0	1667	105.882322858011	0.196485652623
0	1683	106.29565947762	3.246438381205
0	1748	108.522651981925	3.80123582157
0	1894	112.755021974288	-0.144475809041
0	1949	115.159577195353	2.25066633104
0	1956	115.429947240756	4.296707541345
0	1960	115.554690247411	-1.688489347714
0	1988	116.977407311194	12.058690534003
0	2020	119.253814371462	0.29384884068
0	2143	125.234348321853	2.958861589225
0	2241	129.161238675508	-1.997388167207
0	2269	130.894938070381	3.098155636756
0	2307	133.191002797516	0.291304302148
0	2337	135.472847940175	-4.998338346244
0	2426	141.806645477018	-0.730134830691
0	2484	144.120236277041	-1.619830314591
0	2492	144.468075596721	1.892535726316
0	2543	146.298583870867	-1.813389841337
0	2634	150.229525525106	0.330093656291
0	2671	151.346366299274	-0.66476478686
0	2710	152.559249246695	-0.368227607355
0	2782	155.878951895229	-7.689593867778
0	2860	165.18880158984	-3.418308433333
0	2932	169.375237626129	-1.467545418312
0	3048	174.281784656474	-0.962150653994
0	3122	176.828824415514	-1.910324435397
0	3133	177.037060643544	8.106210446947
0	3233	179.775663867951	-2.836639457942
0	3398	184.585550746169	9.198264667076
0	3451	186.056270290042	0.825370236104
0	3458	186.192741424141	0.850101264426
0	3478	187.040591415949	-1.742793097118
0	3523	192.170606685752	-2.872452229086
0	3631	197.412347748766	2.009374150825
0	3783	201.452348072623	3.893279555599
0	3787	201.490212566234	1.938176238997
0	3814	202.256622346645	2.292521922442
0	3837	203.044566280751	-0.595265328862
0	4059	211.731798486435	4.439608441339
0	4125	213.256417750611	-7.857084754428
0	4235	218.090761048922	6.91552182517
0	4308	222.237001565212	0.512289256545
0	4415	225.066512029452	22.480029012115
0	4448	226.115555963567	30.169246224942
0	4480	227.173342293157	-0.183356840156
0	4518	228.15647871926	20.914265380789
0	4533	228.596344030615	6.100256333858
0	4552	229.911805638528	-7.88279019572
0	4555	230.517731408532	2.521882965474
0	4599	239.103380888778	-4.580175500316
0	4629	244.828855732822	-0.596127904226
0	4669	246.906215959518	-1.92132099661
0	4796	251.651916417681	-1.163698941
0	4829	253.090573452059	8.927170024093
0	4851	254.183253511749	1.084354083478
0	4910	256.890901492364	-0.02946903797
0	4926	257.450725011173	-0.808726700882
0	5029	261.836715598292	-0.543613192854
0	5084	263.231169406399	-8.317404702985
0	5130	265.628996781046	3.074450823384
0	5214	271.688739495608	-0.071208961985
0	5286	275.828215258853	-7.420344176026
0	5289	276.430944138449	1.043268476183
0	5423	288.62596062447	-2.210646376584
0	5484	292.62112329947	-4.733325655953
0	5578	301.875522979093	-1.15220636308
0	5613	305.090726717527	-2.084525550846
0	5693	310.633532661722	1.534256540169
0	5736	315.435460014289	-8.83871272503
0	5741	315.613672712746	0.798437593871
0	5804	324.978190115506	-1.435266410325
0	5833	327.074366717491	2.505743903546
0	5852	330.641451174409	-6.19896193277
0	5960	338.91987060987	-2.661317658537
0	6004	342.570296497704	-2.280407121872
0	6007	342.613556670851	0.863209418921
0	6063	347.258873482801	-3.440285172421
0	6091	351.522513849003	-0.045867289442
0	6128	353.027564850573	-1.200897322184
0	6183	356.480094083279	-3.915173358247
0	6256	362.222105771046	1.54490256069
0	6277	362.704921147562	0.407361179493
0	6393	366.527286486375	0.971510750542
0	6415	367.495015566236	-0.848497986628
0	6422	367.912039168298	1.956552356624
0	6445	369.017301196597	-1.297072644068
0	6645	375.121165297125	1.497679080135
0	6672	376.312440089043	5.36089855262
0	6686	377.234630285861	5.05125018187
0	6689	377.645235536374	-1.827627353178
0	6763	380.541716947528	-2.093449348129
0	6819	383.394456205254	3.849587656204
0	6856	384.238982254535	0.767837968842
0	6882	385.154261886593	1.226629666658
0	7118	391.290202868085	2.250175153648
0	7148	392.242304512663	-1.967817250746
0	7158	392.808722908318	1.426167803987
0	7161	393.041263857775	6.577160093489
0	7211	395.47705307382	0.916941213975
0	7245	396.496563973681	0.323785441324
0	7289	398.805888660635	-3.509664550136
0	7376	404.095738339149	-2.37986015475
0	7413	407.506772477247	-5.644998500182
0	7568	418.493379767442	-1.286801934839
0	7607	420.052237592877	5.110146008529
0	7646	421.218412202075	0.560076528619
0	7722	422.994926058644	-0.73733242904
0	7802	424.806860543174	2.28546961877
0	7819	425.198623833861	4.014319024602
0	7950	428.011523151949	2.373019587733
0	7968	428.218381886534	1.459861575657
0	8011	429.400421462249	-0.78426322544
0	8014	429.624996336392	1.913472955094
0	8064	433.906695339802	-11.568022048127
0	8145	447.07662015747	-10.784111788326
0	8184	449.647517284989	3.817046381348
0	8248	458.172618375861	-0.368588009161
0	8296	461.208788539743	0.481837984173
0	8319	462.589366148734	-3.90757709104
0	8399	469.499034440934	0.53677744144
0	8428	471.418630283773	-1.071801500098
0	8485	474.374714632758	1.354718302211
0	8494	476.065466202692	-10.429286139517
0	8620	488.431291496349	-5.550295443145
0	8626	489.650661497357	2.452374384289
0	8629	490.352033880453	2.929857685098
0	8696	496.167017514936	-4.714364922305
0	8750	502.494580464393	0.675441715897
0	8773	503.579159717271	0.041057018199
0	8804	504.845245069173	-2.673423280114
0	8859	508.571822726154	-4.661696318765
0	8949	514.924957820629	-3.942384684219
0	8976	522.261206384132	-3.488024215886
0	9036	528.362653354899	-0.696299103754
0	9041	528.479313122719	2.583069767865
0	9210	533.217337413226	-2.931403879747
0	9364	537.826455844268	1.043759791524
0	9387	538.636409348328	7.029088270148
0	9423	541.136744310227	11.112641421253
0	9481	544.249861132528	0.511854896543
0	9618	548.913832959965	1.535605735692
0	9651	550.008767311306	3.441992774766
0	9704	553.877751033546	0.381295487291
0	9749	555.190251833949	0.771832676424
0	9799	556.724538514524	-1.184203933058
0	9857	561.174042657163	-0.701482699228
0	9892	562.983045406649	-4.699565597914
0	9959	568.398390564	-0.929146056565
0	10043	570.842059989953	3.098045439368
0	10072	571.408267416605	1.192628696001
0	10156	573.622595922284	1.951106080708
0	10217	575.188424573723	0.93574050477
0	10275	577.258778951569	3.210630789419
0	10337	579.407939313895	-3.362675911638
0	10400	581.532406643986	10.331728535419
0	10439	583.768472778278	0.185031819251
0	10444	583.912058643944	6.674306081009
0	10588	590.603890989754	1.436009066174
0	10731	597.478215536449	8.500902578613
0	10770	598.736771955823	1.723756440174
0	10782	599.211333603097	4.774540362772
0	10812	599.99062746669	0.2935359938
0	10886	603.043134511521	-1.954952664856
0	10916	605.347577077113	-4.696545021973
0	11016	612.433985924859	1.40410628904
0	11057	613.892601866041	-4.397694382852
0	11064	614.069929665972	2.021335199489
0	11169	620.502514710765	1.051639285906
0	11240	622.236193141416	-3.327913344439
0	11268	622.972063193325	2.256268652211
0	11306	624.520757884671	4.501442972756
0	11487	629.893889136934	2.33148143356
0	11496	630.054640921173	3.764440126531
0	11544	631.281386324245	3.335062816969
0	11569	631.911434428758	2.247060433456
0	11691	636.222919593303	-6.039433054578
0	11748	638.868858214155	10.482005553181
0	11765	639.642230059944	5.302049162399
0	11808	644.911698169115	1.808010176434
0	11837	647.520346659904	0.796682306923
0	11890	652.882148971159	-3.735878914445
0	11991	659.601789661414	-4.494535180269
0	12030	665.03458850596	-1.458039111411
0	12055	666.702647713946	0.080652886285
0	12148	669.118503442345	0.604752388895
0	12283	673.809065185673	5.544900316744
0	12393	677.503127850492	4.751577342632
0	12409	678.170637983496	-2.780781109703
0	12455	681.350641382316	-3.98181727458
0	12520	684.540696061237	3.269388541332
0	12552	686.462309686474	-0.610308791156
0	12695	692.348306640403	1.34944158366
0	12711	692.672224081113	1.427138114537
0	12715	692.841648403248	-0.679633241435
0	12768	694.672173499554	-1.707690550727
0	12804	695.507502923513	1.353366496455
0	12862	697.927416718983	-2.151911196864
0	12963	702.289993927296	0.304094149004
0	13048	704.99165594112	0.829468327656
0	13092	706.917590402276	-1.009454381928
0	13118	708.057048520162	3.660720828043
0	13176	710.000065462994	0.965688833382
0	13205	711.013137475125	-0.035784531266
0	13307	716.444886641239	-1.028451256958
0	13351	719.398478005537	-1.680106769301
0	13474	726.50333273917	-1.624818339135
0	13480	726.823536296041	8.314351507703
0	13508	728.53135667932	-0.44954199603
0	13572	730.22666541865	1.930594260279
0	13596	731.195817703446	1.978321181041
0	13627	732.58584343219	-2.076183162621
0	13686	736.434172695322	-1.893454721557
0	13692	736.843339579604	5.198585272862
0	13751	740.882839080512	-0.22556699082
0	13767	741.758563171929	-3.870643794154
0	13871	748.679371206265	0.702728784434
0	13886	750.101367851532	-1.438981916294
0	13945	753.323564016373	-0.274352444861
0	14003	755.727586312851	-0.160103047321
0	14042	757.172582533001	1.035171457152
0	14087	759.712098066113	-3.768814010591
0	14131	763.904734191707	-1.474150578549
0	14265	770.108615708376	1.765451695023
0	14404	773.074280074462	0.166107761533
0	14413	773.541825121772	4.484157517882
0	14508	776.123608577774	-0.024492764342
0	14578	778.032669980387	7.145148291204
0	14599	778.903463132047	5.229154684949
0	14678	783.546742367978	-5.695104858639
0	14681	784.742167295614	2.271801874806
0	14737	791.444699680076	1.641070142465
0	14757	792.568751305895	-4.760602479013
0	14834	798.69311600707	0.001491665965
0	14941	801.822795744094	-1.16357735856
0	14984	804.10613442684	-3.609739014033
0	15014	806.970090095607	7.807795129928
0	15146	811.01958263945	-6.179756633969
0	15199	812.428522026525	4.484927271041
0	15228	813.494656675329	2.832711552534
0	15301	818.104032935405	0.32826732617
0	15400	822.371165323643	-1.08220012411
0	15505	825.169800439026	5.352369991686
0	15581	827.110734268009	0.649719809649
0	15589	827.244328167823	-3.702315763398
0	15606	827.878717936242	3.557820109476
0	15695	833.146208945955	1.795251142231
0	15707	833.532729712765	-0.935560104108
0	15733	834.81943025414	1.459308726962
0	15737	834.897708953558	-4.958696233279
0	15811	840.302511337654	-2.801914736773
0	15858	843.794091752978	-6.506916466341
0	15885	846.465014619579	3.114756968851
0	16008	851.73630127498	-2.461513022218
0	16020	851.964994190782	1.562769552829
0	16056	856.16126312977	-3.837482081553
0	16157	862.026744928026	-0.615180495657
0	16212	865.120894596998	1.029122300699
0	16215	865.143338704062	-4.726229325688
0	16337	874.315706039003	-0.327245774854
0	16358	875.183000606212	-1.010209710561
0	16423	878.385900028031	-4.58371078252
0	16545	886.43906634453	-4.980115138413
0	16550	886.492848681298	1.095697678593
0	16556	886.890098006878	2.086841121735
0	16664	893.359394751079	0.015297516291
0	16698	894.293566643138	-1.682159055221
0	16718	895.058934471314	2.849902404189
0	16798	898.379990330102	0.68014137715
0	16875	900.796641748861	2.251985897104
0	16969	905.783026552122	-0.785238529554
0	17016	907.348687041431	-1.202239055702
0	17172	911.739634335884	1.21241093242
0	17296	915.714110044791	1.856577186573
0	17303	915.873155857796	11.234019853145
0	17342	917.101039120633	-9.975034047886
0	17347	917.196558959485	0.505762007494
0	17367	917.957979803083	3.978008080619
0	17433	920.81144344009	6.264390640647
0	17538	929.077811461846	0.32998315825
0	17582	931.26126077808	-0.318954486508
0	17606	934.260033855866	-1.7436197059
0	17757	939.849450403343	2.228029464343
0	17813	941.435734874663	-4.571593830147
0	17885	945.158519310783	6.445420264043
0	17950	948.151607548418	1.934151177806
0	18027	951.094729702299	-11.025932913368
0	18037	951.772863270893	2.230817335319
0	18105	963.797324534979	0.914203714301
0	18115	965.045306059303	-1.066277025513
0	18227	971.542681481421	2.576859052736
0	18305	976.417240245711	0.165998440988
0	18355	978.093016818264	1.445372372439
0	18399	979.280143168441	0.214027765804
0	18434	981.00447070141	2.811593094358
0	18511	983.534930050176	0.665713407291
0	18553	985.646824888451	1.459791151891
0	18653	989.640879294407	1.22704898928
0	18674	990.49112882668	-3.521747015375
0	18779	995.947355493702	1.495032160643
0	18799	996.605369427265	-2.566356923178
0	18859	998.766922018968	3.589288659827
0	18938	1001.986759983695	-2.294727946228
0	19005	1005.567086862578	-2.305714945023
0	19047	1008.261580659203	0.364287173916
0	19123	1011.076655484893	1.66404838546
0	19138	1011.6947537418	0.835254642237
0	19257	1015.963389002343	2.842809842526
0	19323	1018.043686108683	-3.684987898407
0	19351	1019.690184068439	2.480558181796
0	19436	1023.837365250917	1.600419418106
0	19470	1025.180918080686	-0.267744429501
0	19568	1027.494142443554	5.029800553903
0	19601	1028.282136053898	-7.375259445159
0	19642	1029.368023789799	2.769345848429
0	19660	1030.177325729373	4.116588844686
0	19793	1038.250877653836	0.968102011628
0	19881	1042.028282736369	5.022550778382
0	19901	1043.43589704001	0.088100552567
0	19924	1044.204121095738	-0.00521921786
0	20065	1049.488666572043	0.787070063511
0	20114	1050.421363501643	0.881223103124
0	20162	1051.817517050659	2.354188233407
0	20167	1051.872652869045	-1.90144936123
0	20222	1053.810186832376	-0.581406933783
0	20309	1058.684041337977	-0.534846424905
0	20396	1061.777742858348	-0.430901757256
0	20424	1062.423214594967	-1.556618036876
0	20520	1066.450825080257	4.231532067848
0	20592	1069.628054733849	-2.799987553723
0	20601	1070.008450686861	9.432928733401
0	20630	1072.680512663643	-5.430731535617
0	20660	1078.451441548854	-2.011922104837
0	20706	1082.730863334018	-5.117847762099
0	20761	1089.80460975641	0.941173348143
0	20918	1097.069493431459	-5.665516607945
0	20935	1097.794082651571	1.634733176191
0	20993	1102.740005277935	6.668363545897
0	21005	1104.160904994977	-2.990803521759
0	21081	1108.654922077655	-1.342574962032
0	21129	1110.730580305645	-1.176242070465
0	21249	1115.386764996295	-1.818441227519
0	21306	1122.261805599941	-3.357353864455
0	21396	1127.806848215261	2.050972040971
0	21447	1129.722154107753	2.050881400853
0	21540	1132.524622922617	-2.173096794638
0	21595	1134.167898963806	6.8689490195
0	21636	1135.870423751231	-10.368234096057
0	21672	1138.969078230179	7.660961362016
0	21753	1150.367912814033	-8.293973786029
0	21794	1160.106251607491	1.17038542432
0	21838	1162.757025148145	0.785330085592
0	21882	1163.881136815018	-0.124936833023
0	21935	1165.435860207616	-1.178232426436
0	21999	1167.69962232227	-4.309261527231
0	22120	1173.047367840477	6.204325747642
0	22129	1173.322217911282	0.665610647077
0	22207	1175.607707538848	0.499954270767
0	22276	1177.365298440486	1.733331235338
0	22310	1178.968911690776	-3.175873631594
0	22335	1182.758486854308	-2.184128220262
0	22370	1185.361435628701	-1.610489156512
0	22376	1185.528934657072	0.247166302382
0	22531	1189.771496147396	0.944896631948
0	22652	1192.625692120172	0.37742070863
0	22691	1193.529081348315	5.413415033096
0	22839	1196.709728100102	3.348537982483
0	22842	1196.733345841568	6.132547107947
0	22943	1198.687191341302	2.777358496162
0	23012	1200.458931796942	2.795393339334
0	23041	1201.805670140402	-1.119384649517
0	23118	1205.355868488695	-2.417581809346
0	23207	1210.350417180241	1.621237503428
0	23289	1212.145531106866	1.461415251617
0	23361	1214.311307305535	-1.149378852608
0	23375	1215.214505762617	3.792524797857
0	23426	1218.352466249275	-3.309299033132
0	23453	1219.264773416104	2.212179719972
0	23502	1221.712016607782	-3.245729946752
0	23531	1225.266259100052	-1.087618284677
0	23543	1227.157784545937	-5.107400824551
0	23615	1235.215790647245	-8.174058314294
0	23790	1249.395623777351	-2.396483075965
0	23829	1252.006103780802	3.046733581677
0	23906	1254.95437934647	1.398436487088
0	23944	1255.976316057458	1.293931757425
0	23949	1256.078781864962	-1.859834682411
0	24032	1260.047319595449	-5.843506800548
0	24037	1260.131967006431	2.063870469657
0	24099	1267.118879578532	-0.536246966165
0	24112	1268.450037578437	-12.440489880437
0	24258	1282.700562085966	-9.039715011203
0	24261	1282.856303299468	0.345091571562
0	24369	1296.123422823102	-0.010180521432
0	24402	1297.416861561864	0.682730058629
0	24609	1310.059293984063	-2.070393406275
0	24708	1313.887305798113	6.157326554474
0	24739	1314.78974924467	-5.384906275986
0	24777	1317.550636590661	3.385358626553
0	24887	1323.056774295397	0.125285450937
0	24917	1325.016948125154	-1.141418531535
0	24931	1326.792392000476	-1.614609847427
0	24949	1331.120295835126	-0.276363344206
0	24990	1332.362055891356	0.162660786036
0	25088	1334.96197570055	1.930274652617
0	25183	1337.073438141329	3.02318382392
0	25256	1339.380793263372	0.241518423048
0	25298	1341.0816684932	-1.321951104774
0	25313	1341.594024696721	3.974898109157
0	25366	1344.412755474465	-5.150892618935
0	25503	1352.770127934113	-1.108073096786
0	25550	1355.211142448351	-3.807833117819
0	25580	1356.242083881021	2.253420680984
0	25733	1363.060649544343	-2.755234754431
0	25797	1366.734621130143	-0.989092015378
0	25916	1370.715596602648	-4.324329228926
0	25949	1372.842383322107	4.281253729668
0	25970	1376.041551411365	-3.888598812349
0	26002	1380.407297658159	-7.60767210562
0	26062	1389.420839628082	0.381284570156
0	26100	1390.833779266717	-1.594017381777
0	26260	1395.946457956922	5.896377749897
0	26271	1396.207273669216	1.410565488708
0	26332	1397.764199084825	2.030480998696
0	26352	1398.411758035109	-2.548897852394
0	26377	1399.219791264103	2.784426197838
0	26572	1405.462188962953	4.338579062722
0	26628	1407.746135167755	4.246062373711
0	26641	1408.182271561528	4.005222645689
0	26737	1411.862117897543	0.737489563078
0	26749	1413.112455715568	5.436408897876
0	26777	1414.961751405171	0.854881638331
0	26809	1416.580692866969	-4.485000685396
0	26833	1418.978116362284	4.293400941586
0	26858	1421.164112774279	-5.851476626016
0	26969	1428.949493814315	0.758206854499
0	26996	1430.006024408029	-0.356109646089
0	27064	1431.950512338003	0.821815473162
0	27108	1433.706724159327	1.812492075143
0	27139	1435.357578522832	-2.345403345894
0	27257	1440.680107430532	-1.388627199797
0	27406	1445.9889822072	3.010288573895
0	27463	1449.599719875816	-2.664410060771
0	27579	1455.209297013224	2.894141079204
0	27707	1458.921805921209	5.351487479657
0	28034	1467.691540361607	-1.967826405778
0	28049	1467.984589580717	7.1499654139
0	28067	1468.509214923371	4.398316907549
0	28072	1468.558881523174	10.084586410789
0	28114	1469.632673335636	12.03543336534
0	28178	1471.744899752111	-3.305568566119
0	28207	1472.885655930795	12.436782741903
0	28245	1473.973809758309	2.968989144245
0	28284	1475.10460926749	22.071090229793
0	28294	1475.398490427575	17.513108668017
0	28323	1476.912395864568	-2.907799740155
0	28444	1482.515439661758	-0.449993251485
0	28475	1484.551769130982	-2.674093813398
0	28543	1487.709287691955	32.425381204537
0	28572	1489.528777360081	-9.213906786984
0	28597	1491.954698335671	2.858166760701
0	28710	1499.128866238587	-4.262073278927
0	28770	1504.792256298748	-1.529765315256
0	28845	1508.301019790974	-0.818164188876
0	28882	1509.431711427034	-5.979204663117
0	28897	1510.146398826208	3.386943015824
0	28966	1515.833217414218	-1.023951303229
0	28987	1517.33894577715	-3.067748615314
0	29096	1522.959669636105	-5.350363879417
0	29131	1524.820840460283	4.336571525213
0	29153	1529.141458136845	-0.106708277628
0	29263	1533.699147664069	-7.185870836026
0	29286	1534.722627408689	2.019294552286
0	29389	1543.059327062562	0.666403064799
0	29536	1547.415995255083	0.46109275177
0	29787	1553.574145315776	-4.580354167649
0	29795	1553.738830979181	2.474554118214
0	29822	1554.291913334462	4.093390865423
0	29951	1558.143989615131	17.020840932178
0	29969	1558.794225450773	6.64857737897
0	29989	1560.228223844227	-0.870364197339
0	30020	1562.616201347893	18.861056512778
0	30056	1564.136756829954	15.175382096838
0	30094	1565.901694226999	1.047827040052
0	30164	1568.2492230176	2.010022283769
0	30204	1569.656680170937	-1.857569190688
0	30277	1574.615371628728	-2.562201007374
0	30328	1578.078174984293	-2.624259796989
0	30369	1581.601449690453	-0.099839481736
0	30475	1584.23238199681	1.822748673928
0	30510	1585.763189162323	0.252823888372
0	30548	1587.838560462	-10.491688596355
0	30602	1599.96459138592	1.361559629545
0	30653	1602.474926424988	0.406893414536
0	30687	1604.09982557648	-0.014649006157
0	30774	1606.570644585518	1.01109901483
0	30779	1606.722017188135	1.020345517756
0	30847	1609.907778082971	-3.084524844071
0	30926	1614.639761337543	0.57577928326
0	31092	1618.338934332483	2.212074032409
0	31110	1618.814702534113	-1.195938772875
0	31124	1619.079313126931	4.931863635832
0	31239	1624.600821427762	0.008368676986
0	31317	1627.870171159058	-1.290205332976
0	31337	1629.221793178915	4.559604583902
0	31376	1630.729878709173	1.131069528825
0	31379	1630.95465062476	-1.359789006042
0	31456	1633.880379802323	1.248924461878
0	31503	1635.744310962136	1.80685716762
0	31512	1636.341168940557	-5.201364449463
0	31658	1645.150373019513	0.157568963691
0	31669	1645.599988947262	-1.36420190234
0	31768	1649.005677843639	0.020110272676
0	31775	1649.218974989407	0.343438632805
0	31794	1649.756983102738	0.095261467169
0	31893	1654.077331239419	-0.895153492767
0	32047	1659.241258492752	-4.767090104598
0	32094	1665.336129846165	-1.682724547149
0	32141	1667.656834282195	0.550571050394
0	32177	1669.273981067559	0.925570638593
0	32180	1669.839825431285	-0.744237207276
0	32212	1672.572898657251	-2.884274949846
0	32245	1678.281861741408	-5.143881185203
0	32357	1689.096434100206	1.797950273518
0	32391	1690.888852769478	-2.179743586815
0	32473	1694.733276870602	-5.133999431601
0	32541	1698.035461141123	8.072328282142
0	32689	1706.175199803751	2.224677172903
0	32809	1709.906518728176	3.063492401224
0	32849	1710.839483281048	-1.889501201954
0	32868	1711.43966308389	5.675546365346
0	32921	1714.177318510708	6.127230735036
0	33000	1718.740801724101	0.382143732402
0	33058	1720.088913193687	1.229507867267
0	33087	1721.270186977192	0.110820476774
0	33097	1721.661104969522	0.568388602411
0	33171	1724.533843032379	2.140197569724
0	33191	1725.978582817673	-2.603860152381
0	33256	1731.098647056437	-2.830333874708
0	33293	1734.759219080992	-1.552659644765
0	33370	1738.459559172698	1.05742064762
0	33407	1740.961023347736	0.059538664171
0	33415	1741.493158579503	-0.151020219969
0	33438	1743.164393752373	-1.819584013683
0	33477	1746.317387736038	-4.406511502793
0	33540	1751.073396607782	-4.506936785252
0	33600	1757.54678734704	-3.102874294519
0	33612	1758.356992636545	2.187206890553
0	33866	1764.954716864415	1.360550150644
0	33876	1765.036300347022	2.435026504132
0	33977	1768.86435811205	1.269112159155
0	34021	1770.140970221133	8.809390517463
0	34049	1770.968651692832	9.143702061266
0	34064	1772.162253712167	-0.14207367944
0	34108	1773.802757931733	-0.753285670775
0	34120	1774.028791565037	4.594815927295
0	34140	1774.5492282618	13.653962454852
0	34216	1777.338114953435	4.789819690484
0	34248	1778.120008369142	1.133175663019
0	34295	1779.311012594482	-4.763204692793
0	34298	1779.338834448902	1.602062500797
0	34361	1781.474377485832	2.709499553441
0	34520	1788.206272732128	3.95611629191
0	34579	1790.404456289838	2.045058259102
0	34591	1790.945955732863	0.64145769898
0	34599	1791.078355076591	-2.075799710405
0	34629	1794.48847087806	0.203602338002
0	34723	1799.039596805359	0.556394871889
0	34738	1799.727955045168	-6.512862546254
0	34796	1807.757950424829	-3.918965258165
0	34829	1809.440839885952	1.982457643863
0	34955	1815.391013383799	1.547176497858
0	35032	1818.993345287382	-1.921740079004
0	35116	1825.232189224597	-1.513770785766
0	35123	1825.640222594822	7.759537608683
0	35201	1828.495335467301	1.236501349072
0	35220	1829.415455840566	-1.677453156772
0	35340	1834.125629845271	-1.510231401118
0	35372	1838.077580919326	-7.812359935436
0	35531	1853.092818647098	3.975551243812
0	35534	1853.798621224572	-2.665255349386
0	35619	1857.752723612366	0.455983058853
0	35651	1859.464825764883	-0.556584767818
0	35679	1860.293046941732	-1.350705911778
0	35768	1863.219102573399	0.822483270371
0	35865	1866.819462425818	-1.366085604946
0	35914	1868.592442812182	2.237384093848
0	35927	1868.755498440094	-3.591760578854
0	35956	1870.311712739695	1.711228342075
0	36051	1874.186863238603	-1.180974387154
0	36150	1877.599743389123	-2.97237334303
0	36159	1878.139669038313	2.293584290303
0	36186	1880.887901381037	-13.394695530173
0	36259	1896.27768181112	0.082956138876
0	36268	1896.494623850308	-4.699166891985
0	36322	1901.663485963076	-0.742739243898
0	36392	1904.819777813937	1.202674527328
0	36433	1906.612921117122	-0.391645291957
0	36517	1912.067732044665	-2.956197095657
0	36561	1916.063771304614	-0.439898805206
0	36643	1919.576726139995	0.902551269287
0	36769	1923.529898439711	-3.226650827685
0	36798	1924.809584724077	3.586185671312
0	36823	1927.69937161223	-3.02785720913
0	36881	1931.526320165615	-2.594451190163
0	36926	1934.53375370266	-2.055077057711
0	37045	1942.143820928656	3.021970445971
0	37057	1942.679346234243	0.730797669041
0	37066	1943.253971858042	-1.392597831353
0	37134	1946.914904514528	-0.170810903713
0	37162	1949.488792754907	-1.972478837399
0	37214	1953.671264560948	-1.64334885207
0	37252	1955.79567199514	2.944790551845
0	37267	1956.342481328352	-2.152924205889
0	37426	1963.221150147112	1.938275855645
0	37488	1964.70413389105	-0.563418165107
0	37519	1966.034882135469	7.418258825428
0	37559	1967.310106628177	4.64946057614
0	37593	1968.081281256721	-3.107784530389
0	37638	1969.932921354548	2.607313851134
0	37667	1971.643142727033	-1.613804546373
0	37717	1974.737984078574	-6.743541084198
0	37789	1981.861487256536	-1.498613711565
0	38029	1989.713623403483	3.723812501512
0	38053	1990.631103125198	7.252346526833
0	38098	1991.95988771813	-2.577115823698
0	38102	1991.978458549918	1.383782340102
0	38143	1993.285548079673	5.551720784175
0	38155	1993.564430387754	2.454755739762
0	38276	1997.909400537424	2.304316963701
0	38290	1998.295094285187	-5.997143920119
0	38483	2006.526447139239	-1.913922114596
0	38509	2007.66181282992	3.212330728441
0	38657	2017.403194768489	12.10593500478
0	38660	2017.510149926891	-0.034630351038
0	38670	2018.101258137121	3.026949178564
0	38688	2019.471382818547	-1.72068750722
0	38715	2021.72280656786	-4.815908743207
0	38842	2027.683742143786	-2.118456788169
0	38921	2031.27412603397	-0.592958326545
0	38951	2032.495637041175	5.900836325815
0	38980	2033.497137162696	-1.520751815331
0	39059	2035.828788671844	0.439015999432
0	39121	2037.632141562853	0.898250484322
0	39170	2039.000253432155	5.840321312724
0	39173	2039.005988517393	2.192097484178
0	39213	2040.175919814755	0.684808184427
0	39320	2044.939533292412	-0.065985861474
0	39385	2046.887548667329	1.019842180204
0	39433	2048.263497735591	4.084512996098
0	39444	2049.138743952256	-0.173095109044
0	39469	2051.091272149781	-6.436085032263
0	39535	2060.460288862824	-0.087258217755
0	39587	2063.059482568259	0.617819589186
0	39611	2064.538173687555	0.254187073823
0	39619	2064.958426825016	-3.434572368597
0	39679	2069.348099291839	-1.958600804001
0	39853	2076.072913838965	4.592558730048
0	39876	2077.647963354158	0.202795733779
0	39908	2080.564590224382	-0.202940905432
0	40006	2083.787291387942	0.26529544082
0	40149	2090.02064908632	1.859815025169
0	40216	2093.317993475621	5.468074390035
0	40310	2095.723961048603	1.389828265459
0	40329	2096.244888969555	0.082724053749
0	40365	2097.485164352708	-2.103153791746
0	40378	2097.968787338019	15.388557356367
0	40386	2098.440938233803	6.289665707757
0	40449	2102.090352962113	-1.300596043803
0	40545	2107.864452385267	-0.409424940603
0	40577	2109.027151264135	0.228999305585
0	40594	2109.438262312996	3.608025736763
0	40613	2109.848740009959	0.358352470636
0	40742	2112.944263797778	1.302197308602
0	40794	2115.453609021012	5.366312502699
0	40836	2117.463251474175	0.153337506714
0	40893	2120.551098710847	0.547450935285
0	40910	2120.906188801355	0.024353026434
0	40955	2122.467800679594	-0.281395667572
0	40997	2123.908944200807	-1.923188495436
0	41047	2126.237714453751	-5.45292838523
0	41101	2132.635630581772	-1.960360872557
0	41157	2135.040066394531	-4.333804090442
0	41182	2141.125157336574	-11.630275226385
0	41327	2156.170269010289	3.19962252775
0	41391	2160.433173505604	-1.410986901325
0	41402	2161.202634386716	1.933708427618
0	41491	2164.955852767498	0.224467069776
0	41560	2167.337707434856	-3.919569471984
0	41635	2169.715908773989	2.919168201851
0	41687	2172.046593115744	8.810783868635
0	41704	2173.074050190523	-6.202963375039
0	41741	2179.619414990895	0.327786124026