file 311852 1442311664                                          
version 2
run General-0-20150915-12:07:33-12549
attr configname General
attr datetime 20150915-12:07:33
attr experiment General
attr inifile omnetpp.ini
attr iterationvars ""
attr iterationvars2 $repetition=0
attr measurement ""
attr network CloudDataCenterTS
attr processid 12549
attr repetition 0
attr replication #0
attr resultdir results
attr runnumber 0
attr seedset 0

vector 0  CloudDataCenterTS.sink  responseTime_0  ETV
vector 1  CloudDataCenterTS.sink  delayTime_0  ETV
vector 2  CloudDataCenterTS.sink  queuingTime_0  ETV
vector 3  CloudDataCenterTS.sink  serviceTime_0  ETV
vector 4  CloudDataCenterTS.sink  responseTime_1  ETV
vector 5  CloudDataCenterTS.sink  delayTime_1  ETV
vector 6  CloudDataCenterTS.sink  queuingTime_1  ETV
vector 7  CloudDataCenterTS.sink  serviceTime_1  ETV
0	797 45553 68 69946 2.50341157322 3598.655460818326 1129 0.041404042601 30.385745879208 3757.5164331258 23579.617507681
1	46350 38963 68 69946 2.50341157322 3598.655460818326 1129 4.42198e-05 4.34008 696.19420352076 872.22065164822
2	85313 32665 68 69946 2.50341157322 3598.655460818326 1129 0 11.508328755061 321.14724630539 1480.3947227305
3	117978 38328 68 69946 2.50341157322 3598.655460818326 1129 0.000121774 19.4277 2459.988095373 10596.120639477
4	156306 45491 90 69892 5.420778171458 3597.39623575165 1128 0.046489237604 34.705703108114 3867.7710250992 27236.083308276
5	201797 38838 90 69892 5.420778171458 3597.39623575165 1128 0.000398662 5.13661 701.67942302597 878.28923869626
6	240635 32973 90 69892 5.420778171458 3597.39623575165 1128 0 16.83329520625 400.95443522327 2504.5698061663
7	273608 38244 90 69892 5.420778171458 3597.39623575165 1128 0.000133258 15.7101 2558.650217148 11266.824931842
