version 2
run General-1-20150920-11:45:59-10961
attr configname General
attr datetime 20150920-11:45:59
attr experiment General
attr inifile omnetpp.ini
attr iterationvars $0=42653
attr iterationvars2 "$0=42653, $repetition=0"
attr measurement $0=42653
attr network CloudDataCenterTS
attr processid 10961
attr repetition 0
attr replication #0
attr resultdir results
attr runnumber 1
attr seedset 1

vector 0  CloudDataCenterTS.sink  responseTime_0  ETV
vector 1  CloudDataCenterTS.sink  delayTime_0  ETV
vector 2  CloudDataCenterTS.sink  queuingTime_0  ETV
vector 3  CloudDataCenterTS.sink  serviceTime_0  ETV
vector 4  CloudDataCenterTS.sink  responseTime_1  ETV
vector 5  CloudDataCenterTS.sink  delayTime_1  ETV
vector 6  CloudDataCenterTS.sink  queuingTime_1  ETV
vector 7  CloudDataCenterTS.sink  serviceTime_1  ETV
0	63	2.550679231794	-1.041069777337
0	151	7.778812325674	0.485201621562
0	224	9.875076927058	1.050817256358
0	251	11.064490037774	1.273026157178
0	284	13.115169290997	-0.732378486152
0	335	15.949028146803	-0.018714505343
0	384	17.952387992866	-1.763097398816
0	560	24.394655764898	0.398475344544
0	665	28.108489308122	3.860560068892
0	668	28.518982695037	-3.010681071375
0	687	32.536742825649	-3.344170721234
0	693	33.085655991266	0.941431520549
0	759	36.959526197452	-0.81538070378
0	823	39.676551127096	-0.388633683536
0	840	40.311576436461	-2.145823973085
0	880	43.128949411933	-6.157857658982
0	974	51.43019142659	1.38546042711
0	1015	53.537219189468	-3.390309317713
0	1021	56.134503152926	4.90682234579
0	1064	58.37442280994	-9.38886442671
0	1113	68.658462942367	-0.154480143246
0	1182	71.125650226398	-9.002417649126
0	1201	71.95754211006	0.947092795169
0	1291	81.001878377128	-10.860686668987
0	1415	89.524663495959	9.194526069818
0	1449	93.227767968425	1.285250324194
0	1455	93.329643394812	-7.018414075755
0	1635	105.628530143797	-0.057307061591
0	1690	107.259552546808	2.538136386453
0	1782	110.809940079735	7.76071898332
0	1852	112.755021974288	-0.144475809041
0	1907	115.173370653515	2.264459789202
0	1913	115.554690247411	-1.688489347714
0	1964	117.528115335678	6.394875636267
0	2001	119.718469236015	14.799752458824
0	2008	119.850373987015	0.890408456233
0	2127	125.234348321853	2.958861589225
0	2220	129.161238675508	-1.997388167207
0	2279	132.384820940763	4.588038507138
0	2300	133.959163599552	1.059465104184
0	2316	135.472847940175	-4.998338346244
0	2412	142.207283234197	-0.329497073512
0	2467	144.022392068488	1.446852198083
0	2475	144.583645199031	-1.156421392601
0	2520	146.169695267967	-1.942278444237
0	2620	150.229525525106	0.330093656291
0	2649	151.012458353784	-0.99867273235
0	2689	152.559249246695	-0.368227607355
0	2762	155.197842270342	-8.370703492665
0	2850	165.18880158984	-3.418308433333
0	2928	169.508553854988	-1.334229189453
0	3038	173.472244356482	-1.771690953986
0	3089	175.583015649196	6.652165452599
0	3127	176.698774825181	-2.04037402573
0	3235	179.775663867951	-2.836639457942
0	3382	184.585550746169	9.198264667076
0	3417	185.497863015059	0.266962961121
0	3443	186.192741424141	0.850101264426
0	3457	186.782184140966	-2.001200372101
0	3494	191.388940030518	-3.65411888432
0	3615	197.412347748766	2.009374150825
0	3758	201.452348072623	3.893279555599
0	3786	202.256622346645	2.292521922442
0	3798	202.624273391266	3.072237064029
0	3811	203.044566280751	-0.595265328862
0	4001	211.140704214871	3.848514169775
0	4064	212.589793875763	-8.523708629276
0	4216	218.651857325585	7.476618101833
0	4283	222.298097841875	0.573385533208
0	4437	226.710582864013	4.214495167256
0	4461	227.47665224023	31.530342501605
0	4465	227.527608306115	24.941125288778
0	4500	228.430504956492	1.073805823179
0	4517	229.424872456511	1.429024013453
0	4537	231.035400645971	23.7931873075
0	4540	231.466708067242	-6.327887767006
0	4578	239.103380888778	-4.580175500316
0	4611	244.828855732822	-0.596127904226
0	4652	246.562525289421	-2.265011666707
0	4767	250.919723360607	6.756319932641
0	4787	251.651916417681	-1.163698941
0	4819	253.957225844457	0.858326416186
0	4877	256.890901492364	-0.02946903797
0	4893	257.450725011173	-0.808726700882
0	5001	261.836715598292	-0.543613192854
0	5060	263.231169406399	-8.317404702985
0	5108	265.628996781046	3.074450823384
0	5187	271.688739495608	-0.071208961985
0	5247	275.828215258853	-7.420344176026
0	5256	277.613427826529	2.225752164263
0	5378	288.907403927322	-1.929203073732
0	5427	292.20931184599	-5.145137109433
0	5521	301.654061415122	-1.373667927051
0	5562	304.614650400139	-2.560601868234
0	5631	310.151732380567	1.052456259014
0	5662	314.536183774123	-0.279051344752
0	5678	315.621527482912	-8.652645256407
0	5743	325.101060305974	-1.312396219857
0	5769	327.005515872579	2.436893058634
0	5786	331.417984897094	-5.422428210085
0	5874	338.792794118325	-2.788394150082
0	5932	342.570296497704	-2.280407121872
0	5935	342.613556670851	0.863209418921
0	5994	347.258873482801	-3.440285172421
0	6018	351.332508804285	-0.23587233416
0	6059	353.027564850573	-1.200897322184
0	6108	355.960486719313	-4.434780722213
0	6190	362.222105771046	1.54490256069
0	6193	362.269520062733	-0.028039905336
0	6316	366.527286486375	0.971510750542
0	6338	367.495015566236	-0.848497986628
0	6345	367.912039168298	1.956552356624
0	6367	369.017301196597	-1.297072644068
0	6567	375.121165297125	1.497679080135
0	6600	376.312440089043	5.36089855262
0	6614	377.234630285861	5.05125018187
0	6617	377.645235536374	-1.827627353178
0	6694	380.541716947528	-2.093449348129
0	6747	382.876047586911	3.331179037861
0	6773	383.722496839272	0.251352553579
0	6839	385.659197166862	1.731564946927
0	7027	390.038118095197	3.574014330911
0	7061	390.962897803447	1.92287008901
0	7066	391.043603075259	-0.338952029072
0	7089	392.043900803049	-2.16622096036
0	7137	395.18468430988	0.624572450035
0	7183	396.496563973681	0.323785441324
0	7220	398.198247861802	-4.117305348969
0	7308	404.095738339149	-2.37986015475
0	7341	407.268809250321	-5.882961727108
0	7489	417.687124577902	-2.093057124379
0	7580	421.40967138002	6.467579795672
0	7644	422.849042211932	2.190706538476
0	7653	423.010860867327	-0.721397620357
0	7737	424.814558642544	3.630253833285
0	7831	427.084263913652	4.562872989248
0	7888	428.645679864856	1.887159553979
0	7920	430.052331313286	-0.132353374403
0	7962	431.857131548047	6.218627983831
0	7968	431.981805420452	4.270282039154
0	7986	435.517060244976	-9.957657142953
0	8064	446.789047252741	-11.071684693055
0	8109	449.647517284989	3.817046381348
0	8173	458.172618375861	-0.368588009161
0	8221	461.208788539743	0.481837984173
0	8241	462.589366148734	-3.90757709104
0	8324	469.499034440934	0.53677744144
0	8350	471.418630283773	-1.071801500098
0	8405	473.93988012917	0.919883798623
0	8410	476.065466202692	-10.429286139517
0	8539	488.431291496349	-5.550295443145
0	8545	489.650661497357	2.452374384289
0	8548	490.352033880453	2.929857685098
0	8609	496.167017514936	-4.714364922305
0	8665	502.494580464393	0.675441715897
0	8704	504.107166007902	0.56906330883
0	8717	504.568314389673	-2.950353959614
0	8772	508.571822726154	-4.661696318765
0	8865	515.432389453341	-3.434953051507
0	8892	522.261206384132	-3.488024215886
0	8952	528.362653354899	-0.696299103754
0	8957	528.479313122719	2.583069767865
0	9126	533.217337413226	-2.931403879747
0	9293	537.776682423013	0.993986370269
0	9319	539.086635927073	7.479314848893
0	9339	541.136744310227	11.112641421253
0	9384	544.318854341952	0.580848105967
0	9525	549.169173072252	1.790945847979
0	9558	550.469396900927	3.902622364387
0	9648	555.102539088625	1.60608354237
0	9660	555.487824234686	1.069405077161
0	9722	557.337525647226	-0.571216800356
0	9764	561.174042657163	-0.701482699228
0	9799	562.983045406649	-4.699565597914
0	9855	568.367416950606	-0.960119669959
0	10004	572.309894685569	4.565880134984
0	10032	573.305964340216	3.090325619612
0	10144	575.937970635934	4.266480794358
0	10155	576.202116160662	1.949432091709
0	10172	576.601154909072	2.553006746922
0	10269	580.049052361149	8.848374252582
0	10272	580.058995339182	-2.711619886351
0	10330	582.728704361107	5.490951798172
0	10352	583.768472778278	0.185031819251
0	10494	590.785847352395	1.617965428815
0	10644	598.858523419397	1.845507903748
0	10691	599.988971485809	11.011658527973
0	10758	602.182219124905	7.74542588458
0	10766	602.390050882984	2.692959410094
0	10782	603.41962667456	-1.578460501817
0	10815	605.347577077113	-4.696545021973
0	10904	612.433985924859	1.40410628904
0	10950	613.892601866041	-4.397694382852
0	10975	614.981944675017	2.933350208534
0	11092	621.298581281268	1.847705856409
0	11132	622.236193141416	-3.327913344439
0	11167	623.368129763828	2.652335222714
0	11190	624.106095660676	4.086780748761
0	11377	630.054640921173	3.764440126531
0	11400	630.527959689269	2.965551985895
0	11433	631.281386324245	3.335062816969
0	11454	631.911434428758	2.247060433456
0	11583	636.728667991618	-5.533684656263
0	11658	642.195419489655	13.808566828681
0	11682	643.273730988654	8.933550091109
0	11706	645.357219206174	2.253531213493
0	11735	647.520346659904	0.796682306923
0	11788	652.882148971159	-3.735878914445
0	11889	659.601789661414	-4.494535180269
0	11924	664.977094116985	-1.515533500386
0	11944	666.702647713946	0.080652886285
0	12034	669.118503442345	0.604752388895
0	12168	673.809065185673	5.544900316744
0	12282	677.503127850492	4.751577342632
0	12285	677.505413236973	-3.446005856226
0	12338	681.350641382316	-3.98181727458
0	12403	684.540696061237	3.269388541332
0	12433	686.462309686474	-0.610308791156
0	12548	691.857376303542	0.858511246799
0	12578	692.672224081113	1.427138114537
0	12582	692.850718066387	-0.670563578296
0	12632	694.672173499554	-1.707690550727
0	12644	695.057516338287	0.903379911229
0	12710	697.646104784027	-2.43322313182
0	12817	702.289993927296	0.304094149004
0	12907	704.99165594112	0.829468327656
0	12954	706.917590402276	-1.009454381928
0	12980	708.057048520162	3.660720828043
0	13042	710.000065462994	0.965688833382
0	13070	711.013137475125	-0.035784531266
0	13163	715.50528790131	-1.968049996887
0	13218	719.665265970696	-1.413318804142
0	13345	726.50333273917	-1.624818339135
0	13351	726.823536296041	8.314351507703
0	13376	728.53135667932	-0.44954199603
0	13443	730.294313060636	1.998241902265
0	13471	731.554211030871	2.336714508466
0	13504	732.689042285267	-1.972984309544
0	13537	734.951058259713	3.306303952971
0	13554	735.6381712821	-2.689456134779
0	13631	740.882839080512	-0.22556699082
0	13654	741.758563171929	-3.870643794154
0	13744	748.679371206265	0.702728784434
0	13754	749.611046598525	-1.929303169301
0	13810	753.323564016373	-0.274352444861
0	13865	755.236124039401	-0.651565320771
0	13905	756.999043123741	0.861632047892
0	13940	758.88717029913	-4.593741777574
0	13990	763.904734191707	-1.474150578549
0	14087	769.290659430255	0.947495416902
0	14258	773.074280074462	0.166107761533
0	14278	773.541825121772	4.484157517882
0	14375	776.123608577774	-0.024492764342
0	14401	776.792049555328	5.904527866145
0	14441	778.092372101299	4.418063654201
0	14540	783.546742367978	-5.695104858639
0	14557	786.180428074369	3.710062653561
0	14598	791.444699680076	1.641070142465
0	14634	793.398287836379	-3.931065948529
0	14705	798.69311600707	0.001491665965
0	14805	801.822795744094	-1.16357735856
0	14846	804.56048745256	-3.155385988313
0	14980	810.493629821957	11.331334856278
0	15002	811.01958263945	-6.179756633969
0	15057	812.54331947057	4.599724715086
0	15132	816.235782239761	5.573837116966
0	15177	818.375441034	0.599675424765
0	15276	822.371165323643	-1.08220012411
0	15396	826.174425112539	6.356994665199
0	15430	827.110734268009	0.649719809649
0	15457	827.762037742006	-3.184606189215
0	15472	829.275805631932	4.954907805166
0	15560	833.146208945955	1.795251142231
0	15578	833.532729712765	-0.935560104108
0	15606	834.67218756735	1.312066040172
0	15610	834.798612229708	-5.057792957129
0	15691	840.302511337654	-2.801914736773
0	15736	843.794091752978	-6.506916466341
0	15759	846.062583685601	2.712326034873
0	15875	851.73630127498	-2.461513022218
0	15882	851.964994190782	1.562769552829
0	15927	856.16126312977	-3.837482081553
0	16028	862.026744928026	-0.615180495657
0	16074	864.845050975226	0.753278678927
0	16080	865.143338704062	-4.726229325688
0	16199	874.315706039003	-0.327245774854
0	16220	875.183000606212	-1.010209710561
0	16282	878.385900028031	-4.58371078252
0	16395	886.247061901387	1.443805016244
0	16400	886.410069631672	-5.009111851271
0	16403	886.492848681298	1.095697678593
0	16504	893.093926439398	-0.25017079539
0	16548	894.301994046175	-1.673731652184
0	16570	895.267361874351	3.058329807226
0	16632	897.82516003047	0.125311077518
0	16738	900.796641748861	2.251985897104
0	16826	905.906393975633	-0.661871106043
0	16874	907.363343189826	-1.187582907307
0	17043	912.696246807509	2.169023404045
0	17127	915.087812006191	10.44867600154
0	17139	915.428766193186	1.571233334968
0	17196	917.115695269028	-9.960377899491
0	17203	917.289759237752	0.598962285761
0	17222	918.18118008135	4.201208358886
0	17282	920.526099588485	5.979046789042
0	17378	929.077811461846	0.32998315825
0	17414	930.681237899354	-0.898977365234
0	17438	933.641614180956	-2.36203938081
0	17558	938.961958824518	1.340537885518
0	17626	941.049846832744	-4.957481872066
0	17717	945.158519310783	6.445420264043
0	17775	948.151607548418	1.934151177806
0	17846	951.071401147149	-11.049261468518
0	17863	952.398539387556	2.856493451982
0	17906	963.4104025536	0.527281732922
0	17926	965.045306059303	-1.066277025513
0	18033	970.747257652269	1.781435223584
0	18119	976.417240245711	0.165998440988
0	18167	978.093016818264	1.445372372439
0	18214	979.280143168441	0.214027765804
0	18253	981.00447070141	2.811593094358
0	18325	983.534930050176	0.665713407291
0	18373	985.646824888451	1.459791151891
0	18474	989.640879294407	1.22704898928
0	18484	990.011752244784	-4.001123597271
0	18594	995.83110392902	1.378780595961
0	18613	996.3372684933	-2.834457857143
0	18664	998.114546435995	2.936913076854
0	18762	1001.986759983695	-2.294727946228
0	18838	1005.567086862578	-2.305714945023
0	18881	1008.17186246268	0.274568977393
0	18968	1011.076655484893	1.66404838546
0	18984	1011.691080207322	0.831581107759
0	19087	1015.963389002343	2.842809842526
0	19140	1018.293904175294	-3.434769831796
0	19182	1021.028265059421	3.818639172778
0	19255	1024.469972624064	2.233026791253
0	19301	1025.995890937995	0.547228427808
0	19400	1028.168182378726	5.703840489075
0	19409	1028.31477936534	-7.342616133717
0	19464	1030.360209861332	3.761531919962
0	19468	1030.463742954962	4.403006070275
0	19596	1038.250877653836	0.968102011628
0	19732	1043.939548907561	6.933816949574
0	19740	1044.204121095738	-0.00521921786
0	19767	1045.132546508019	1.784750020576
0	19869	1049.018290958943	0.316694450411
0	19929	1050.421363501643	0.881223103124
0	19969	1051.603862697484	2.140533880232
0	19975	1051.78899851587	-1.985103714405
0	20034	1053.821012213005	-0.570581553154
0	20111	1058.684041337977	-0.534846424905
0	20197	1061.777742858348	-0.430901757256
0	20222	1062.423214594967	-1.556618036876
0	20319	1066.891083986739	4.67179097433
0	20393	1069.954404210033	-2.473638077539
0	20418	1071.442310214507	10.866788261047
0	20441	1072.756253776464	-5.354990422796
0	20474	1078.553500753731	-1.90986289996
0	20534	1083.411113238115	-4.437597858002
0	20573	1089.80460975641	0.941173348143
0	20742	1097.078494905584	-5.65651513382
0	20752	1097.794082651571	1.634733176191
0	20813	1103.24900675206	7.177365020022
0	20819	1104.160904994977	-2.990803521759
0	20895	1108.654922077655	-1.342574962032
0	20940	1110.730580305645	-1.176242070465
0	21063	1115.952112539405	-1.253093684409
0	21113	1121.66541651089	-3.953742953506
0	21201	1127.806848215261	2.050972040971
0	21250	1129.722154107753	2.050881400853
0	21331	1132.524622922617	-2.173096794638
0	21427	1136.608202377302	9.309252432996
0	21432	1136.741484600954	-9.497173246334
0	21539	1142.329735423585	11.021618555422
0	21567	1150.854744951055	-7.807141649007
0	21596	1160.106251607491	1.17038542432
0	21642	1162.757025148145	0.785330085592
0	21696	1164.142897450095	0.136823802054
0	21752	1165.864796175488	-0.749296458564
0	21809	1167.9565963911	-4.052287458401
0	21928	1173.047367840477	6.204325747642
0	21937	1173.322217911282	0.665610647077
0	22012	1175.607707538848	0.499954270767
0	22084	1177.365298440486	1.733331235338
0	22122	1178.968911690776	-3.175873631594
0	22140	1182.758486854308	-2.184128220262
0	22172	1185.361435628701	-1.610489156512
0	22178	1185.528934657072	0.247166302382
0	22333	1189.771496147396	0.944896631948
0	22454	1192.625692120172	0.37742070863
0	22493	1193.529081348315	5.413415033096
0	22639	1196.709728100102	3.348537982483
0	22643	1196.733345841568	6.132547107947
0	22736	1198.687191341302	2.777358496162
0	22811	1200.458931796942	2.795393339334
0	22846	1201.805670140402	-1.119384649517
0	22933	1205.355868488695	-2.417581809346
0	23023	1210.350417180241	1.621237503428
0	23104	1212.145531106866	1.461415251617
0	23178	1214.311307305535	-1.149378852608
0	23189	1215.214505762617	3.792524797857
0	23240	1218.052495660089	-3.609269622318
0	23254	1218.782946622779	1.730352926647
0	23313	1221.712016607782	-3.245729946752
0	23339	1225.195063897241	-1.158813487488
0	23351	1226.972267508736	-5.292917861752
0	23430	1236.100972230271	-7.288876731268
0	23577	1249.294949874684	-2.497156978632
0	23709	1255.976316057458	1.293931757425
0	23729	1257.278997187367	8.319626988242
0	23747	1257.801501176984	-0.137115370389
0	23772	1258.509871383575	4.953928524193
0	23829	1260.131967006431	2.063870469657
0	23833	1260.222712388648	-5.668114007349
0	23889	1267.118879578532	-0.536246966165
0	23902	1268.450037578437	-12.440489880437
0	24034	1282.485211548325	-0.026000179581
0	24042	1282.700562085966	-9.039715011203
0	24133	1295.11192765558	-1.021675688954
0	24188	1297.438895774011	0.704764270776
0	24394	1309.928880960834	2.198901717195
0	24399	1310.059293984063	-2.070393406275
0	24508	1314.78974924467	-5.384906275986
0	24546	1317.132607981983	2.967330017875
0	24653	1323.056774295397	0.125285450937
0	24686	1325.016948125154	-1.141418531535
0	24700	1326.792392000476	-1.614609847427
0	24721	1331.120295835126	-0.276363344206
0	24762	1332.362055891356	0.162660786036
0	24878	1335.439451619802	2.407750571869
0	24953	1337.073438141329	3.02318382392
0	25016	1339.380793263372	0.241518423048
0	25050	1341.101485304059	-1.302134293915
0	25094	1342.78384150758	5.164714920016
0	25141	1345.015496237411	-4.548151855989
0	25272	1352.770127934113	-1.108073096786
0	25310	1355.211142448351	-3.807833117819
0	25357	1356.951248736056	2.962585536019
0	25521	1364.273151737794	-1.54273256098
0	25571	1366.734621130143	-0.989092015378
0	25682	1370.715596602648	-4.324329228926
0	25730	1374.377984375082	5.816854782643
0	25745	1376.342039085301	-3.588111138413
0	25781	1380.550441888491	-7.464527875288
0	25833	1389.420839628082	0.381284570156
0	25868	1390.833779266717	-1.594017381777
0	26037	1396.220174588677	1.423466408169
0	26063	1396.759358876383	6.709278669358
0	26104	1397.764199084825	2.030480998696
0	26123	1398.411758035109	-2.548897852394
0	26173	1400.263494364368	3.828129298103
0	26350	1405.01023614375	3.886626243519
0	26371	1405.51786010602	2.017787311976
0	26415	1407.102607373424	2.925558457585
0	26504	1410.883169324641	3.207122506949
0	26511	1411.365132377854	0.240504043389
0	26552	1414.961751405171	0.854881638331
0	26584	1416.580692866969	-4.485000685396
0	26605	1418.978116362284	4.293400941586
0	26630	1421.164112774279	-5.851476626016
0	26748	1428.949493814315	0.758206854499
0	26774	1430.006024408029	-0.356109646089
0	26859	1432.47841776756	1.349720902719
0	26886	1433.706724159327	1.812492075143
0	26934	1435.879551993252	-1.823429875474
0	27055	1440.680107430532	-1.388627199797
0	27230	1446.743997403981	3.765303770676
0	27262	1449.599719875816	-2.664410060771
0	27367	1454.946700936143	2.631545002123
0	27459	1457.302477019208	3.732158577656
0	27812	1466.211763936022	7.737468823637
0	27842	1466.834008594749	5.999384427932
0	27868	1467.382161918189	9.784921947893
0	27872	1467.440959375639	-2.218407391746
0	27884	1467.881617698268	3.770719682446
0	27977	1471.698136713672	-3.352331604558
0	27989	1472.244890947238	11.796017758346
0	28042	1474.043965450798	21.010446413101
0	28055	1474.496228897129	3.491408283065
0	28083	1475.381575793051	17.496194033493
0	28104	1477.479652861141	-2.340542743582
0	28202	1482.515439661758	-0.449993251485
0	28242	1485.060099127453	-2.165763816927
0	28341	1489.803181386892	-8.939502760173
0	28348	1489.931394482201	34.647487994783
0	28363	1491.443109710102	2.346578135132
0	28482	1499.244720866043	-4.146218651471
0	28536	1504.792256298748	-1.529765315256
0	28605	1508.301019790974	-0.818164188876
0	28640	1509.584618370942	-5.826297719209
0	28673	1511.293711989868	4.534256179484
0	28732	1515.959907811438	-0.897260906009
0	28755	1517.48347889506	-2.923215497404
0	28872	1523.224136261077	-5.085897254445
0	28909	1526.145084280628	5.660815345558
0	28932	1529.390885523241	0.142719108768
0	29041	1533.699147664069	-7.185870836026
0	29064	1534.722627408689	2.019294552286
0	29167	1543.059327062562	0.666403064799
0	29310	1547.415995255083	0.46109275177
0	29539	1553.56317809768	-4.591321385745
0	29553	1553.895893987828	2.631617126861
0	29574	1554.291913334462	4.093390865423
0	29726	1558.109967261478	16.986818578525
0	29754	1559.229963367979	7.084315296176
0	29773	1560.850341152467	-0.248246889099
0	29801	1562.58217899424	18.827034159125
0	29830	1564.002734476301	15.041359743185
0	29875	1565.867671873346	1.013804686399
0	29926	1567.465679364373	1.226478630542
0	29979	1569.656680170937	-1.857569190688
0	30048	1573.899728028628	-3.277844607474
0	30096	1578.078174984293	-2.624259796989
0	30144	1581.601449690453	-0.099839481736
0	30244	1584.230103947058	1.820470624176
0	30282	1585.763189162323	0.252823888372
0	30318	1587.475013147172	-10.855235911183
0	30368	1599.96459138592	1.361559629545
0	30406	1602.124802452104	0.056769441652
0	30443	1603.854866790166	-0.259607792471
0	30502	1605.903836123315	0.344290552627
0	30535	1606.574736681367	0.873065010988
0	30586	1609.336823668791	-3.655479258251
0	30667	1614.639761337543	0.57577928326
0	30809	1618.269270185757	2.142409885683
0	30825	1618.814702534113	-1.195938772875
0	30837	1619.079313126931	4.931863635832
0	30945	1623.79797185655	-0.794480894226
0	31034	1627.870171159058	-1.290205332976
0	31081	1630.147054218052	5.484865623039
0	31099	1630.729878709173	1.131069528825
0	31104	1630.95465062476	-1.359789006042
0	31191	1633.880379802323	1.248924461878
0	31249	1635.744310962136	1.80685716762
0	31258	1636.341168940557	-5.201364449463
0	31403	1645.150373019513	0.157568963691
0	31415	1645.599988947262	-1.36420190234
0	31513	1649.005677843639	0.020110272676
0	31520	1649.218974989407	0.343438632805
0	31540	1649.756983102738	0.095261467169
0	31617	1653.250946671735	-1.721538060451
0	31792	1659.241258492752	-4.767090104598
0	31839	1665.029718788747	-1.989135604567
0	31887	1667.509608153992	0.403344922191
0	31925	1669.495652738443	-1.088409900118
0	31928	1669.924296418285	1.575885989319
0	31954	1673.169549462857	-2.28762414424
0	31984	1677.630010633491	-5.79573229312
0	32084	1687.787813060146	0.489329233458
0	32130	1690.675225097825	-2.393371258468
0	32210	1694.31755539893	-5.549720903273
0	32274	1696.216593235528	6.253460376547
0	32431	1706.175199803751	2.224677172903
0	32551	1709.906518728176	3.063492401224
0	32591	1710.839483281048	-1.889501201954
0	32606	1711.332032446943	5.567915728399
0	32637	1713.037921236803	4.987833461131
0	32722	1716.948292939413	-1.410365052286
0	32794	1720.088913193687	1.229507867267
0	32809	1721.014558898038	-0.078157469073
0	32824	1721.270186977192	0.110820476774
0	32892	1723.75511767885	1.361472216195
0	32918	1725.978582817673	-2.603860152381
0	32968	1730.550080429746	-3.378900501399
0	33012	1734.567625661797	-1.74425306396
0	33096	1738.459559172698	1.05742064762
0	33116	1740.139742234816	-0.761742448749
0	33138	1741.356618449672	-0.2875603498
0	33162	1742.813574917089	-2.170402848967
0	33197	1746.009677742966	-4.714221495865
0	33255	1751.178245818466	-4.402087574568
0	33337	1757.90086835547	-2.748793286089
0	33345	1758.356992636545	2.187206890553
0	33602	1764.954716864415	1.360550150644
0	33612	1765.036300347022	2.435026504132
0	33703	1768.514175254217	0.918929301322
0	33727	1769.296184568897	7.964604865227
0	33778	1771.391209475523	-0.913117916084
0	33788	1772.213466448131	10.388516816565
0	33827	1773.51326654663	-1.042777055878
0	33921	1777.101648281997	7.667672644255
0	33986	1779.177875080157	1.441103132052
0	33995	1779.311012594482	-4.763204692793
0	34000	1779.468215987789	18.572950180841
0	34051	1781.236124837725	4.249292131602
0	34057	1781.254277516352	8.705982253401
0	34123	1784.032277672233	5.267399739842
0	34251	1788.206272732128	3.95611629191
0	34305	1790.299988233954	1.940590203218
0	34324	1790.945955732863	0.64145769898
0	34332	1791.078355076591	-2.075799710405
0	34362	1794.48847087806	0.203602338002
0	34457	1799.039596805359	0.556394871889
0	34469	1799.440704327084	-6.800113264338
0	34523	1807.757950424829	-3.918965258165
0	34557	1809.440839885952	1.982457643863
0	34695	1815.391013383799	1.547176497858
0	34765	1818.993345287382	-1.921740079004
0	34822	1821.817979738927	3.937294752788
0	34840	1823.13237704446	-3.613582965903
0	34934	1828.495335467301	1.236501349072
0	34955	1829.415455840566	-1.677453156772
0	35062	1834.125629845271	-1.510231401118
0	35084	1838.427126783384	-7.462814071378
0	35240	1853.092818647098	3.975551243812
0	35243	1853.798621224572	-2.665255349386
0	35347	1858.139377723887	0.842637170374
0	35382	1859.464825764883	-0.556584767818
0	35408	1860.37453786444	-1.26921498907
0	35491	1863.219102573399	0.822483270371
0	35575	1866.819462425818	-1.366085604946
0	35627	1868.592442812182	2.237384093848
0	35639	1868.755498440094	-3.591760578854
0	35672	1870.311712739695	1.711228342075
0	35763	1874.186863238603	-1.180974387154
0	35851	1877.599743389123	-2.97237334303
0	35862	1878.971218462078	3.125133714068
0	35887	1880.887901381037	-13.394695530173
0	35944	1896.27768181112	0.082956138876
0	35952	1896.494623850308	-4.699166891985
0	36001	1901.663485963076	-0.742739243898
0	36068	1904.819777813937	1.202674527328
0	36109	1906.612921117122	-0.391645291957
0	36193	1912.067732044665	-2.956197095657
0	36240	1916.063771304614	-0.439898805206
0	36342	1920.391871008918	1.71769613821
0	36448	1923.529898439711	-3.226650827685
0	36477	1926.397360025194	5.173960972429
0	36505	1927.982218315679	-2.745010505681
0	36560	1931.526320165615	-2.594451190163
0	36608	1934.53375370266	-2.055077057711
0	36709	1941.3120190153	2.190168532615
0	36739	1942.679346234243	0.730797669041
0	36748	1943.253971858042	-1.392597831353
0	36816	1946.914904514528	-0.170810903713
0	36841	1948.994315460746	-2.46695613156
0	36899	1953.671264560948	-1.64334885207
0	36917	1954.695425748333	1.844544305038
0	36947	1956.0377682014	-2.457637332841
0	37104	1963.161143381296	1.878269089829
0	37169	1964.70413389105	-0.563418165107
0	37206	1966.034882135469	7.418258825428
0	37247	1967.351100802903	4.690454750866
0	37275	1968.081281256721	-3.107784530389
0	37327	1970.314688775933	2.989081272519
0	37356	1971.643142727033	-1.613804546373
0	37410	1974.737984078574	-6.743541084198
0	37483	1981.861487256536	-1.498613711565
0	37709	1988.845463420678	5.466706822313
0	37735	1989.713623403483	3.723812501512
0	37766	1990.899908375153	3.166081079655
0	37810	1991.95988771813	-2.577115823698
0	37813	1991.978458549918	1.383782340102
0	37829	1992.378790683234	1.269116035242
0	37985	1997.909400537424	2.304316963701
0	37994	1998.171350491625	-6.120887713681
0	38162	2006.526447139239	-1.913922114596
0	38189	2007.66181282992	3.212330728441
0	38309	2015.055488849788	9.758229086079
0	38325	2015.853159371585	0.778850413028
0	38333	2016.948032780353	-0.596747497576
0	38355	2019.780490528213	-1.411579797554
0	38378	2021.600328973531	-4.938386337536
0	38512	2027.683742143786	-2.118456788169
0	38590	2030.88133894407	-0.985745416445
0	38593	2031.153688375846	4.558887660486
0	38641	2033.497137162696	-1.520751815331
0	38720	2035.828788671844	0.439015999432
0	38785	2037.632141562853	0.898250484322
0	38834	2039.000253432155	5.840321312724
0	38837	2039.005988517393	2.192097484178
0	38877	2040.175919814755	0.684808184427
0	38981	2044.939533292412	-0.065985861474
0	39046	2046.887548667329	1.019842180204
0	39094	2048.263497735591	4.084512996098
0	39105	2049.138743952256	-0.173095109044
0	39133	2051.091272149781	-6.436085032263
0	39199	2059.805331085345	-0.742215995234
0	39256	2063.059482568259	0.617819589186
0	39270	2064.05436352406	-0.229623089672
0	39283	2064.958426825016	-3.434572368597
0	39335	2069.127691576864	-2.179008518976
0	39523	2076.072913838965	4.592558730048
0	39526	2076.224669143719	-1.22049847666
0	39566	2080.564590224382	-0.202940905432
0	39659	2083.508738755722	-0.0132571914
0	39809	2089.519711393843	1.358877332692
0	39870	2092.465303176446	4.61538409086
0	39995	2095.723961048603	1.389828265459
0	40000	2095.816761248703	-0.345403667103
0	40012	2096.142836916753	13.562606935101
0	40028	2096.50602991351	4.354757387464
0	40056	2097.485164352708	-2.103153791746
0	40116	2101.512960311885	-1.877988694031
0	40210	2107.864452385267	-0.409424940603
0	40232	2108.773328262174	2.943091685941
0	40250	2109.027151264135	0.228999305585
0	40300	2110.144321339675	0.653933800352
0	40439	2113.515571593437	1.873505104261
0	40476	2115.453609021012	5.366312502699
0	40516	2117.345804820408	0.035890852947
0	40597	2120.551098710847	0.547450935285
0	40610	2120.906188801355	0.024353026434
0	40637	2122.467800679594	-0.281395667572
0	40664	2123.908944200807	-1.923188495436
0	40711	2126.237714453751	-5.45292838523
0	40771	2132.635630581772	-1.960360872557
0	40827	2135.040066394531	-4.333804090442
0	40855	2141.125157336574	-11.630275226385
0	41009	2156.170269010289	3.19962252775
0	41072	2160.433173505604	-1.410986901325
0	41097	2161.954817790871	2.685891831773
0	41180	2164.955852767498	0.224467069776
0	41249	2167.337707434856	-3.919569471984
0	41308	2169.287404138754	2.490663566616
0	41350	2171.080238247797	7.844429000688
0	41387	2172.654794817366	-6.622218748196
0	41437	2179.619414990895	0.327786124026