file 1117648 1442244657                                         
version 2
run NoTimeshared-0-20150914-17:30:49-7722
attr configname NoTimeshared
attr datetime 20150914-17:30:49
attr experiment NoTimeshared
attr inifile omnetpp.ini
attr iterationvars ""
attr iterationvars2 $repetition=0
attr measurement ""
attr network CloudDataCenterTS
attr processid 7722
attr repetition 0
attr replication #0
attr resultdir results
attr runnumber 0
attr seedset 0

vector 0  CloudDataCenterTS.sink  responseTime_0  ETV
vector 1  CloudDataCenterTS.sink  delayTime_0  ETV
vector 2  CloudDataCenterTS.sink  queuingTime_0  ETV
vector 3  CloudDataCenterTS.sink  serviceTime_0  ETV
vector 4  CloudDataCenterTS.sink  responseTime_1  ETV
vector 5  CloudDataCenterTS.sink  delayTime_1  ETV
vector 6  CloudDataCenterTS.sink  queuingTime_1  ETV
vector 7  CloudDataCenterTS.sink  serviceTime_1  ETV
0	810 148199 34 108116 0.606145646654 3599.530463995986 3666 0.01651181909 10.100579466627 4063.8999896356 9470.8287296332
1	149009 148239 34 108116 0.606145646654 3599.530463995986 3666 5.535189e-06 0.708620676488 392.64402059798 82.120652997637
2	297248 116716 34 108116 0.606145646654 3599.530463995986 3666 0 6.429510840827 916.90474672426 1521.0555388943
3	413964 148231 34 108116 0.606145646654 3599.530463995986 3666 0.000136851812 7.060911153265 2752.1814137094 4096.1285808843
4	562195 146526 54 108128 1.363787654311 3599.795481660778 3622 0.010917166567 15.477230618577 4074.4995870694 10444.526547606
5	708721 146513 54 108128 1.363787654311 3599.795481660778 3622 2.003015e-06 1.004538690346 381.58737194982 82.135609170487
6	855234 115918 54 108128 1.363787654311 3599.795481660778 3622 0 8.975552427944 959.17601152154 1895.2776076449
7	971152 146496 54 108128 1.363787654311 3599.795481660778 3622 0.000340492374 8.822462464002 2731.3121293954 4280.1547242849
