version 2
run Timeshared-0-20150914-18:07:21-9327
attr configname Timeshared
attr datetime 20150914-18:07:21
attr experiment Timeshared
attr inifile omnetpp.ini
attr iterationvars ""
attr iterationvars2 $repetition=0
attr measurement ""
attr network CloudDataCenterTS
attr processid 9327
attr repetition 0
attr replication #0
attr resultdir results
attr runnumber 0
attr seedset 0

vector 0  CloudDataCenterTS.sink  responseTime_0  ETV
vector 1  CloudDataCenterTS.sink  delayTime_0  ETV
vector 2  CloudDataCenterTS.sink  queuingTime_0  ETV
vector 3  CloudDataCenterTS.sink  serviceTime_0  ETV
vector 4  CloudDataCenterTS.sink  responseTime_1  ETV
vector 5  CloudDataCenterTS.sink  delayTime_1  ETV
vector 6  CloudDataCenterTS.sink  queuingTime_1  ETV
vector 7  CloudDataCenterTS.sink  serviceTime_1  ETV
0	36	0.724976306026	0.724976306026
0	65	2.081299870735	0.489549870735
0	91	2.796321904727	0.408701904727
0	142	4.601203563806	0.621833563806
0	193	5.817740414863	1.042490414863
0	206	6.071968274888	2.888468274888
0	223	6.432855277126	0.065855277126
0	273	7.705020945459	2.133900945459
0	358	9.548370188047	1.589620188047
0	377	9.752688175137	0.998068175138
0	401	10.167108282265	0.616618282265
0	404	10.171736001257	3.008866001257
0	436	11.099161304538	0.752761304538
0	457	11.722848574432	0.580648574432
0	476	12.286725264967	0.348625264967
0	497	13.174885498957	0.440885498957
0	509	13.639316092346	0.109416092346
0	538	15.03745337895	0.71175337895
0	615	16.951732374458	1.034232374458
0	647	17.662571950081	0.153371950081
0	652	17.742023928041	2.620423928041
0	659	17.911846467908	1.198446467908
0	679	18.480638649072	0.175538649072
0	733	20.157772662204	1.056772662204
0	747	20.271103873236	0.374203873236
0	783	21.587374727586	0.098774727586
0	828	22.621713753306	0.337213753306
0	879	23.755119197697	0.674719197697
0	899	24.075237397108	3.382537397108
0	905	24.14187672103	0.26567672103
0	966	25.720182983408	1.048082983408
0	1006	26.620154926704	1.152154926704
0	1054	27.843035306357	1.579135306357
0	1076	28.303968310118	0.448368310118
0	1084	28.56778161982	1.50808161982
0	1104	29.200076383497	0.548576383497
0	1118	29.508624433436	0.061224433436
0	1154	30.664962233079	0.421762233079
0	1186	31.862541208729	0.823441208729
0	1199	32.353516190186	0.518516190186
0	1245	33.527457462663	0.896557462664
0	1277	34.377444779999	0.154844779999
0	1305	35.237955392944	0.219455392944
0	1313	35.378472842235	1.951772842236
0	1336	36.005713290564	0.191313290564
0	1409	37.673027170755	1.062827170755
0	1415	37.701842146612	0.295742146612
0	1442	38.769417553856	0.567417553856
0	1465	39.720933909878	0.723033909878
0	1481	40.177243071745	0.383543071745
0	1503	40.875653977537	0.286053977537
0	1540	41.954851569496	0.569351569496
0	1581	42.953623513757	0.772323513757
0	1619	44.019496104658	1.042296104658
0	1644	44.665168871844	0.892068871844
0	1678	45.603561217488	0.238761217488
0	1692	46.094359552954	1.525359552954
0	1733	47.062454830679	0.901754830679
0	1749	47.73729014306	0.78069014306
0	1784	48.571903264	0.819403264
0	1804	49.264494787847	0.716194787847
0	1820	49.703381070973	0.359181070973
0	1847	50.474102818384	0.334002818384
0	1868	51.342530146895	0.406530146895
0	1883	51.817475244403	0.085675244403
0	1925	53.156730696647	0.629030696647
0	1960	54.17049153063	0.84689153063
0	1971	54.415499214001	0.295999214001
0	1996	55.032137599163	0.116837599163
0	2069	57.105561151514	0.598461151514
0	2091	57.428563416134	0.125563416134
0	2139	58.697782691565	2.986582691565
0	2214	60.463818517531	1.569118517531
0	2243	61.132648406877	1.442048406877
0	2280	61.820329321627	1.333829321627
0	2298	62.046146049871	0.763846049871
0	2366	63.571260563144	0.697160563144
0	2395	64.203519448472	6.104719448472
0	2459	65.952333902644	1.486533902644
0	2491	66.786705897158	4.708505897158
0	2510	66.944347623313	3.274347623313
0	2517	67.047786897158	0.990186897159
0	2542	67.8181066348	0.9646066348
0	2545	67.820228101504	0.170928101504
0	2551	68.013815027721	2.752115027721
0	2569	69.004981857203	0.559781857203
0	2603	69.987893505137	0.746793505137
0	2616	70.077645497406	0.040645497406
0	2664	71.540004317698	0.707204317698
0	2730	73.30935540437	0.88475540437
0	2769	74.267437212523	2.638737212523
0	2774	74.301895834416	0.285595834416
0	2784	74.529970181121	1.309470181121
0	2807	75.245329993127	0.433129993127
0	2850	76.663956993547	1.055856993547
0	2873	77.319197759526	0.119397759526
0	2914	78.919821235615	0.924121235615
0	2933	79.42865864011	3.02465864011
0	2948	79.628399507886	0.836799507886
0	2960	79.91891342842	0.33141342842
0	3012	81.449687761603	1.066387761603
0	3029	81.728467545602	0.549267545602
0	3079	82.961832732423	0.986732732423
0	3087	83.178935532513	0.408035532513
0	3115	83.812155568581	0.245355568581
0	3172	85.58589706409	0.42729706409
0	3194	86.034008634913	1.671308634913
0	3219	86.673839495303	0.719439495303
0	3238	87.133974202594	0.383674202594
0	3259	87.995261905073	0.449061905073
0	3286	88.792703078262	0.450603078262
0	3339	90.255459202313	1.117559202313
0	3382	91.057019406624	0.327319406624
0	3387	91.168265149214	1.234465149214
0	3420	91.819464749684	0.293864749684
0	3447	93.081365547404	0.759965547404
0	3461	93.426558212839	0.309258212839
0	3524	95.323191644371	1.409991644371
0	3544	95.62170361703	0.91260361703
0	3569	96.378445417994	0.873545417994
0	3583	96.907089200972	0.606289200972
0	3604	97.273187098355	0.176487098355
0	3634	98.345174250986	0.452574250986
0	3689	99.730779286358	1.042379286358
0	3695	99.74376017272	0.25946017272
0	3709	100.336147005476	0.056147005476
0	3734	101.345416502298	0.269416502298
0	3762	102.027095124095	0.155095124095
0	3781	102.853497077512	0.185497077512
0	3837	104.56052431964	1.09652431964
0	3871	105.188120980631	0.133120980631
0	3877	105.490385709656	1.230385709656
0	3940	106.996638835569	0.349638835569
0	3951	107.261200273126	1.410200273126
0	4030	109.232417337067	0.993417337067
0	4065	110.052150094487	2.609150094487
0	4083	110.375789271449	1.340789271449
0	4099	110.678981252581	0.051981252581
0	4148	112.175936250243	2.344936250243
0	4152	112.217048546501	0.795048546501
0	4178	112.673963771783	0.455963771783
0	4222	114.015041247133	1.001041247133
0	4230	114.352590397785	0.542590397785
0	4253	114.890671183601	0.284671183601
0	4293	115.985659446553	0.583659446553
0	4381	118.475616676317	1.481616676317
0	4396	118.729953132475	0.144953132475
0	4441	120.129641435808	0.748641435808
0	4458	120.395074930662	0.218074930662
0	4473	120.78387325567	2.99487325567
0	4494	121.133863859483	4.935863859483
0	4499	121.243892597034	0.270892597034
0	4526	121.8566083595	0.0876083595
0	4612	124.334406343935	1.769406343935
0	4624	124.602794941074	0.446794941074
0	4630	124.671301676781	1.310301676781
0	4657	125.305403416179	0.353403416179
0	4673	126.114171102419	0.366171102419
0	4701	127.174093744575	0.630093744575
0	4747	128.48457092709	1.14457092709
0	4757	128.667379941771	0.531379941771
0	4810	130.365000983192	1.433000983193
0	4835	130.875406006158	1.147406006158
0	4851	131.324556975343	0.801556975343
0	4857	131.426317290426	0.107317290427
0	4887	132.590419179399	0.475419179399
0	4907	133.477419494672	0.566419494672
0	4956	134.659279972949	0.952279972949
0	4975	135.164844053958	0.661844053959
0	5002	135.921296848845	0.622296848845
0	5041	137.144569822584	1.049569822584
0	5068	137.864704722054	0.178704722054
0	5076	138.07597343117	1.185973431171
0	5097	138.723414932533	0.241414932533
0	5126	139.754455856065	0.476455856066
0	5146	140.297513329534	0.223513329534
0	5161	141.271907835764	0.401907835764
0	5179	141.887765096024	0.221765096024
0	5261	144.742775106564	2.280775106564
0	5281	144.956792408147	0.903792408147
0	5292	145.098785664865	1.841785664865
0	5299	145.307117623378	0.458117623378
0	5322	145.896037681751	0.251037681751
0	5377	147.644489426221	1.203489426221
0	5394	148.048095353364	0.811095353364
0	5419	148.907607252014	0.874607252014
0	5454	150.024903283483	1.195903283483
0	5484	150.837270670898	1.213270670898
0	5520	151.960717599435	0.744717599435
0	5523	151.966533348888	1.546533348888
0	5565	153.206602783135	0.398602783135
0	5609	154.547978382326	0.147978382326
0	5639	155.285109683288	3.273109683288
0	5645	155.462812802381	0.266812802381
0	5652	155.576444414239	1.972444414239
0	5698	156.992824632569	1.001824632569
0	5728	158.015854394162	0.432854394162
0	5752	158.855408671931	0.476408671931
0	5759	159.009961570991	2.222961570991
0	5780	159.74824485129	0.57324485129
0	5803	160.73456685766	0.76356685766
0	5815	160.876888976527	0.109888976527
0	5850	162.378747972274	0.020747972274
0	5866	162.994851905017	1.431851905017
0	5879	163.397295281051	0.243295281051
0	5931	165.183906672049	0.437906672049
0	6062	168.210248730065	2.668248730065
0	6078	168.545478906958	0.615478906958
0	6128	169.711388489354	5.761388489354
0	6136	169.888932994413	2.754932994413
0	6152	170.179367600876	1.454367600876
0	6172	170.676455504312	0.359455504312
0	6187	171.050859997855	4.712859997855
0	6234	172.062802632266	0.949802632266
0	6242	172.163457237446	2.642457237446
0	6250	172.359069133061	0.450069133061
0	6269	172.933198351752	0.228198351752
0	6335	174.917386278934	1.416386278934
0	6367	175.449406503139	0.357406503139
0	6396	176.479875406335	0.591875406335
0	6419	177.026421146245	2.729421146245
0	6445	177.951759705938	0.471759705938
0	6463	178.613605430737	0.337605430737
0	6472	178.85660856818	2.17260856818
0	6488	179.218631631118	0.146631631118
0	6545	180.924193605109	0.260193605109
0	6553	181.202679251851	1.334679251851
0	6579	182.016280781017	0.557280781017
0	6602	182.526078291218	0.271078291218
0	6690	185.263201961822	1.416201961822
0	6722	185.968632496737	1.325632496737
0	6733	186.201560287696	3.150560287696
0	6745	186.288140779035	0.849140779035
0	6760	186.905043954569	0.670043954569
0	6783	187.332836386072	0.301836386072
0	6835	189.32908421347	1.50308421347
0	6846	189.488958154421	0.070958154421
0	6849	189.49639469928	0.87439469928
0	6883	190.800260396508	0.586260396508
0	6903	191.195180227298	0.185180227298
0	7016	193.746403430276	1.940403430276
0	7023	193.976544600738	0.578544600738
0	7069	195.323568854516	0.334568854516
0	7078	195.456998362986	1.263998362986
0	7127	197.202349180977	0.621349180977
0	7160	197.921370481784	5.319370481784
0	7176	198.20173012038	2.41673012038
0	7193	198.597636241942	0.424636241942
0	7238	199.584405655792	2.207405655792
0	7242	199.663673827001	0.694673827001
0	7270	200.417618080492	0.652618080492
0	7333	202.148754510358	0.792754510358
0	7352	202.334938577231	1.774938577231
0	7361	202.895194508828	0.743194508828
0	7373	203.093394891844	0.145394891844
0	7410	204.251231786744	0.507231786744
0	7430	205.15642367903	0.61642367903
0	7445	205.453706657812	0.117706657812
0	7469	206.190177483195	0.059177483195
0	7511	207.385799896006	0.458799896006
0	7523	207.830516060561	0.107516060561
0	7569	209.391236008102	0.872236008102
0	7580	209.763893409945	0.448893409945
0	7603	210.778617025012	0.667617025012
0	7676	212.923964642597	1.220964642597
0	7700	213.648459478357	0.354459478357
0	7707	213.811305516685	2.904305516685
0	7755	214.92339009611	0.83339009611
0	7758	214.943919663904	2.445919663904
0	7790	216.032123958865	1.146123958865
0	7803	216.345127448921	0.663127448921
0	7887	218.696894764698	2.218894764698
0	7903	218.940745949443	0.870745949443
0	7924	219.565802498424	2.291802498424
0	7951	220.237225135099	1.372225135099
0	7965	220.600652807745	0.939652807745
0	7973	220.770691971298	0.313691971298
0	8016	222.200868674516	0.151868674516
0	8057	223.376969029467	0.531969029467
0	8085	224.089192084373	2.836192084373
0	8129	225.37919268225	0.94219268225
0	8147	225.728895279968	0.496895279968
0	8167	226.118930367763	2.477930367763
0	8209	227.049661281535	1.021661281535
0	8224	227.505991115607	0.681991115607
0	8236	227.664819734987	0.044819734987
0	8271	229.02828167301	0.61228167301
0	8322	230.294870045215	0.286870045215
0	8332	230.419069967481	1.207069967481
0	8356	231.119517264224	0.315517264224
0	8407	232.746842397343	0.351842397343
0	8412	232.932233155391	1.333233155391
0	8458	234.191611651109	1.000611651109
0	8483	234.850308205151	0.863308205151
0	8513	235.6688738383	0.8858738383
0	8523	236.034175281294	0.455175281294
0	8552	236.969967865929	0.594967865929
0	8603	238.15099521973	0.97999521973
0	8613	238.419029702474	0.453029702474
0	8648	239.673947884472	0.911947884472
0	8677	240.59389624922	1.03589624922
0	8730	242.051682175998	0.901682175998
0	8772	243.132212356248	0.390212356248
0	8800	243.678971026128	1.732971026128
0	8846	244.537866742824	0.204866742824
0	8883	245.294583625663	0.165583625663
0	8908	245.6660494121	2.1280494121
0	8959	246.890908235667	0.169908235667
0	8969	247.050785265432	1.125785265432
0	8985	247.518640127125	7.164640127125
0	9019	248.565324125691	1.048324125691
0	9060	249.683454746211	1.370454746211
0	9098	250.384818212142	0.479818212142
0	9179	252.414025753464	1.714025753464
0	9182	252.47068688008	0.17868688008
0	9202	252.863787770969	3.754787770969
0	9208	253.049105888597	1.553105888597
0	9298	255.533353778122	1.649353778122
0	9318	256.028163036789	0.552163036789
0	9332	256.325720780454	1.645720780454
0	9342	256.502328690814	0.230328690814
0	9372	257.185994004769	0.118994004769
0	9389	257.554128190702	4.466128190702
0	9426	258.26262778196	0.39962778196
0	9492	260.075761552911	1.416761552911
0	9498	260.215537434857	0.760537434858
0	9521	260.925561757661	0.674561757662
0	9579	262.386369342726	1.339369342726
0	9592	262.623919914233	0.780919914233
0	9620	263.054606433746	0.415606433746
0	9643	263.790225581532	0.356225581532
0	9663	264.858226121258	0.628226121258
0	9678	265.200622840792	0.174622840792
0	9717	266.591963188727	0.769963188727
0	9801	268.290529671114	0.080529671115
0	9814	268.493064630311	1.079064630311
0	9828	268.951370831757	2.333370831757
0	9880	270.181210125953	0.380210125953
0	9883	270.267102870589	1.26110287059
0	9930	271.756734075268	0.363734075269
0	9938	271.900458457909	1.30345845791
0	9956	272.276445085627	0.087445085627
0	9979	273.074345217052	0.089345217052
0	9990	273.835692800572	0.054692800572
0	10040	275.666179331249	0.293179331249
0	10056	276.151143725981	1.574143725981
0	10092	277.240359210906	0.276359210906
0	10114	277.796913556431	1.628913556431
0	10130	278.15804481054	0.39804481054
0	10156	279.118501214944	0.562501214945
0	10205	280.50579596576	0.35779596576
0	10255	282.119951829174	0.379951829174
0	10264	282.377696520721	3.025696520722
0	10281	282.707676464319	1.763676464319
0	10301	283.091286560794	0.556286560794
0	10320	283.701805911757	0.370805911757
0	10343	284.284813955915	0.157813955915
0	10394	285.827951612802	0.904951612802
0	10399	285.855265379376	0.136265379376
0	10422	287.01768423368	0.50268423368
0	10439	287.34009340862	0.02909340862
0	10488	289.459856078721	1.352856078721
0	10530	290.398240521965	1.496240521965
0	10557	290.844881454425	1.146881454425
0	10560	290.88886000448	0.39486000448
0	10619	292.641758173136	0.555758173136
0	10636	292.968921503919	0.086921503919
0	10651	293.192995762861	1.902995762861
0	10736	295.885155590574	1.411155590574
0	10755	296.364221249706	1.095221249706
0	10779	296.948877671005	0.883877671005
0	10834	298.245381310322	4.567381310322
0	10839	298.326529571587	0.669529571587
0	10898	299.510335991225	0.261335991225
0	10975	301.530955941681	4.669955941681
0	10988	301.719833451158	3.266833451158
0	10995	301.812332943934	0.971332943934
0	11009	302.34242316844	0.70642316844
0	11030	302.592491912189	0.160491912189
0	11036	302.634522137349	2.589522137349
0	11061	303.415367452743	0.187367452743
0	11086	304.116637955689	0.092637955689
0	11123	305.077608404574	0.257608404574
0	11146	306.014345599183	0.398345599183
0	11190	307.090624742962	0.678624742962
0	11286	309.483803281782	0.684803281782
0	11294	309.584724743851	2.376724743851
0	11313	309.883449722652	0.288449722652
0	11346	310.658529993302	0.267529993302
0	11355	310.840831370167	2.837831370167
0	11387	311.609353233016	0.422353233016
0	11437	312.953343040473	0.970343040473
0	11453	313.567695041765	0.788695041765
0	11480	313.999008163529	0.424008163529
0	11510	314.823852984392	0.453852984392
0	11526	315.288348765604	0.122348765604
0	11539	316.155098027628	0.193098027628
0	11588	317.730813267551	0.972813267551
0	11604	318.077979576441	0.523979576441
0	11630	318.768556639647	0.418556639647
0	11649	319.578865362724	0.432865362724
0	11676	320.712623290194	0.770623290194
0	11739	322.288906026426	1.551906026426
0	11742	322.314625700479	0.781625700479
0	11783	323.149168680758	0.024168680758
0	11802	323.686457949831	1.357457949831
0	11816	323.991082447434	0.070082447434
0	11867	325.769996872191	1.052996872191
0	11874	326.217630209494	0.704630209494
0	11899	327.075581368684	0.766581368684
0	11954	328.620480511316	0.720480511316
0	11994	329.825423108753	2.721423108753
0	11999	329.82822319989	1.13222319989
0	12038	330.770590117065	0.482590117065
0	12101	332.587199548601	0.707199548601
0	12124	333.245414998073	3.753414998073
0	12173	334.254820760589	3.170820760589
0	12183	334.316420031681	1.640420031681
0	12190	334.410441312424	0.143441312424
0	12247	336.117656309776	0.258656309776
0	12258	336.545827697586	3.074827697586
0	12275	336.795364121972	1.732364121972
0	12332	338.108710881185	0.657710881185
0	12350	338.508631968341	0.261631968341
0	12354	338.551264285027	1.896264285027
0	12381	339.582883366172	0.539883366172
0	12395	339.892015776563	0.054015776563
0	12425	341.006862699361	0.372862699361
0	12447	341.739418783298	0.309418783298
0	12491	343.041605898058	0.815605898058
0	12504	343.422080414975	0.400080414975
0	12535	344.314859941554	0.496859941554
0	12556	345.061378413907	0.447378413907
0	12601	346.263102367311	0.853102367311
0	12625	347.104308721866	0.899308721866
0	12660	347.970290410487	0.969290410487
0	12678	348.480489741479	0.683489741479
0	12737	349.708567304712	1.115567304712
0	12763	350.494803925933	1.105803925933
0	12801	351.431171936715	1.246171936715
0	12820	351.968372020731	0.987372020731
0	12825	352.119835059505	0.342835059505
0	12857	353.209853066293	0.637853066293
0	12883	353.719154586147	0.351154586147
0	12929	355.004035379742	0.840035379742
0	12980	356.206380255864	0.450380255864
0	13066	358.284771409212	1.732771409212
0	13106	359.188267879958	0.249267879958
0	13112	359.203177114714	1.855177114714
0	13143	360.518575246217	0.783575246217
0	13155	360.602218197484	0.071218197484
0	13174	360.970176738678	2.826176738678
0	13191	361.358816725464	6.398816725464
0	13210	361.952039232359	0.625039232359
0	13239	362.867065434556	0.744065434556
0	13263	363.377305934812	0.458305934812
0	13286	363.828022312171	0.113022312171
0	13336	365.404460996696	0.893460996696
0	13360	365.784845884059	0.478845884059
0	13389	366.546841583896	0.444841583896
0	13433	367.772784566276	0.874784566276
0	13511	369.400354168881	0.910354168881
0	13528	369.864575891928	0.578575891928
0	13567	370.760848264379	3.066848264379
0	13592	371.160906767141	1.078906767141
0	13601	371.51067974567	0.63267974567
0	13615	371.817179364385	0.144179364385
0	13648	372.905867732074	0.436867732074
0	13666	373.745501738117	0.480501738117
0	13686	374.322524381065	0.261524381065
0	13711	375.421497074141	0.564497074141
0	13733	376.109779551053	0.456779551053
0	13783	377.545973577873	0.300973577873
0	13786	377.696971052644	1.247971052644
0	13827	379.042861326069	1.002861326069
0	13830	379.131221241462	0.295221241462
0	13873	380.533920885293	0.901920885293
0	13898	381.278402226804	0.850402226804
0	13912	381.935019090674	0.711019090674
0	13931	382.55861945507	0.53861945507
0	13948	383.11930725127	0.30330725127
0	13983	384.526796344217	0.119796344217
0	13991	384.825259022295	1.213259022295
0	14012	385.497780008786	0.294780008786
0	14052	386.866673468294	0.071673468294
0	14062	387.164041845924	1.165041845924
0	14112	388.58426357108	0.99326357108
0	14121	388.928918319239	0.541918319239
0	14135	389.4471134297	0.2641134297
0	14165	390.624031118969	0.645031118969
0	14200	391.637858308786	0.067858308786
0	14216	392.222293842438	1.448293842438
0	14252	393.177068919363	0.811068919363
0	14278	393.851154950555	0.689154950555
0	14323	395.232090385607	1.274090385607
0	14356	395.926067680355	0.376067680355
0	14367	396.147058420706	1.393058420706
0	14395	396.844364216816	0.498364216816
0	14476	398.67131658161	0.73431658161
0	14521	399.774586721025	0.245586721025
0	14568	400.889864085996	2.156864085996
0	14586	401.218585297549	0.893585297549
0	14589	401.220811049442	0.099811049442
0	14676	403.420302097811	1.503302097811
0	14695	403.690045665466	0.978045665466
0	14713	404.287253359608	0.779253359608
0	14725	404.363029039997	7.222029039997
0	14736	404.709387540277	0.405387540277
0	14761	405.352426003689	0.252426003689
0	14782	406.390876056974	0.494876056974
0	14809	407.142659557543	0.450659557543
0	14873	408.856125351589	0.572125351589
0	14876	408.900681167216	1.412681167216
0	14897	409.673777717595	0.594777717595
0	14932	410.81303177455	0.14203177455
0	14945	411.320551294354	1.445551294354
0	14978	412.183988788923	0.716988788923
0	15032	413.513577638643	0.454577638643
0	15058	414.099874734886	1.836874734886
0	15088	414.855138909709	1.000138909709
0	15118	415.723663179505	1.072663179505
0	15138	416.181536135129	0.735536135129
0	15164	416.666146716431	0.424146716431
0	15208	417.850870934093	0.812870934093
0	15235	418.616819607615	0.782819607615
0	15259	419.238233594003	0.608233594003
0	15320	420.703539602671	0.481539602671
0	15338	421.081366811886	0.063366811886
0	15345	421.192979079392	1.766979079392
0	15371	422.155447559098	0.342447559098
0	15431	423.542213200086	0.933213200086
0	15446	424.108354434916	0.703354434916
0	15464	424.582466858341	0.381466858341
0	15563	426.710374816759	1.713374816759
0	15627	428.27736856252	0.89236856252
0	15643	428.540057110517	0.360057110517
0	15707	429.457889687545	2.868889687545
0	15712	429.493048599778	3.700048599778
0	15742	430.121213818023	1.145213818023
0	15761	430.766223773671	0.198223773671
0	15826	432.463122921908	1.099122921908
0	15849	432.944764251716	0.784764251716
0	15862	433.019375070602	3.247375070602
0	15890	433.789911846136	0.833911846136
0	15906	434.241512087983	0.489512087983
0	15941	434.860032415331	0.313032415331
0	15977	435.951251044616	0.608251044616
0	16003	436.521513673965	0.382513673965
0	16056	437.748917174365	0.813917174365
0	16105	438.930527252373	1.199527252373
0	16127	439.696675999742	0.373675999742
0	16138	440.044069201505	1.517069201505
0	16186	441.202305166162	1.083305166162
0	16192	441.338708068917	0.424708068917
0	16209	442.097505888804	0.387505888804
0	16252	443.637148381989	1.131148381989
0	16276	444.426021636214	1.124021636214
0	16279	444.586252595024	0.488252595024
0	16328	446.322679977783	1.428679977783
0	16343	446.49893977396	0.01293977396
0	16362	447.056380301817	1.366380301817
0	16400	447.738822054577	0.457822054577
0	16423	448.190351193967	0.113351193967
0	16469	450.230904276905	1.357904276905
0	16496	450.807554731172	1.138554731172
0	16499	450.852393466976	0.387393466976
0	16543	452.345302705836	1.084302705836
0	16579	453.204531597299	1.147531597299
0	16634	454.687697435314	0.243697435314
0	16651	455.097110381212	2.244110381212
0	16729	457.216725156249	1.180725156249
0	16741	457.61819878224	3.97019878224
0	16778	458.315217378705	3.075217378705
0	16783	458.340023736073	1.508023736073
0	16791	458.401006952386	0.773006952386
0	16842	459.49252871908	0.27252871908
0	16855	459.965219511966	1.541219511966
0	16883	460.59512617356	0.58012617356
0	16914	461.415917727271	0.604917727271
0	16927	461.794601283273	0.187601283273
0	16974	463.48257661914	1.07957661914
0	16987	463.837038624479	0.638038624479
0	17022	464.710348467325	0.715348467325
0	17062	465.366759470087	0.575759470087
0	17090	466.365066972751	0.778066972751
0	17112	466.720920045289	0.338920045289
0	17126	467.195395539192	0.017395539192
0	17166	468.916339852628	0.146339852628
0	17189	469.662404455831	1.688404455831
0	17231	470.693598724401	1.127598724401
0	17260	471.359286017677	0.997286017677
0	17280	471.95517859505	0.79717859505
0	17330	473.187965267114	0.438965267114
0	17382	474.495962541762	0.154962541762
0	17435	475.99157911285	0.05857911285
0	17438	476.003208647361	0.866208647361
0	17454	476.542743967651	4.588743967651
0	17464	476.713145597948	3.168145597948
0	17481	477.097520266153	0.368520266153
0	17499	477.602907149496	0.077907149496
0	17526	478.786363729829	0.465363729829
0	17552	479.394490116219	0.278490116219
0	17587	480.922777625509	1.010777625509
0	17595	481.236499873838	0.528499873838
0	17617	482.117125819877	0.613125819877
0	17652	483.318518025749	1.018518025749
0	17698	484.584511991469	0.692511991469
0	17757	486.122150392972	3.026150392972
0	17786	486.556537329788	1.073537329788
0	17792	486.645660467205	0.366660467205
0	17810	487.129163521329	2.441163521329
0	17837	487.98189323617	0.90689323617
0	17874	488.889838533053	1.018838533053
0	17916	489.81225097952	0.34925097952
0	17934	490.153058885964	1.486058885964
0	17961	490.656118992321	0.397118992321
0	17987	491.157351527381	0.102351527381
0	18017	492.083923044568	0.233923044568
0	18072	493.830841360879	1.184841360879
0	18079	493.928527847503	0.486527847503
0	18112	494.717875291925	0.479875291925
0	18136	495.14411282605	0.11011282605
0	18155	495.947063952672	0.117063952672
0	18190	496.912197813975	0.286197813975
0	18215	497.742275490439	0.320275490439
0	18239	498.609090039352	0.392090039352
0	18275	499.533858955399	0.520858955399
0	18298	500.004360749155	0.195360749155
0	18364	501.676760716271	0.275760716271
0	18391	502.706117513427	0.509117513427
0	18414	503.201311456607	0.208311456607
0	18417	503.20776815192	2.60276815192
0	18444	504.054780207709	0.265780207709
0	18475	505.003417231474	0.419417231474
0	18513	506.199928723081	0.819928723081
0	18555	507.07901767553	0.90301767553
0	18565	507.497728152102	0.525728152102
0	18582	507.959337336817	0.191337336817
0	18655	509.658003274318	1.094003274318
0	18669	509.923264580175	0.563264580175
0	18690	510.207918648921	0.051918648921
0	18788	512.702276794825	1.751276794825
0	18820	513.183573240964	1.436573240964
0	18840	513.527433552512	0.984433552512
0	18849	513.76834229731	0.42934229731
0	18935	515.364242064159	0.433242064159
0	18985	516.640015146402	0.913015146402
0	19005	517.163632085306	0.640632085306
0	19026	517.702288015122	3.567288015122
0	19048	518.450058129201	1.132058129201
0	19073	519.086376097628	0.176376097629
0	19085	519.331413295849	1.217413295849
0	19127	520.88486134537	1.17886134537
0	19154	521.685786723737	1.183786723738
0	19194	522.662988233466	1.364988233466
0	19200	522.705393062917	0.611393062917
0	19249	523.993206665348	1.103206665348
0	19272	524.592792306678	0.111792306678
0	19283	524.835714199686	1.150714199687
0	19325	525.931194195775	0.654194195775
0	19379	527.249093931774	0.380093931774
0	19442	529.050702942882	0.589702942882
0	19450	529.176964105203	1.511964105204
0	19479	529.876264071177	3.803264071177
0	19519	530.756131473476	1.499131473477
0	19536	531.115617069291	0.267617069292
0	19565	531.886377098548	0.242377098548
0	19573	532.022261250673	1.970261250673
0	19612	533.050244641276	0.610244641276
0	19644	533.844292460555	0.608292460555
0	19685	534.94094241467	0.11294241467
0	19692	535.071891348501	1.039891348501
0	19715	535.899131036603	0.275131036603
0	19740	536.887178127113	0.468178127113
0	19823	539.038329085722	1.027329085723
0	19856	539.69428635395	0.88728635395
0	19875	539.93626974105	0.333269741051
0	19908	540.972780373365	3.757780373365
0	19974	542.314550780971	1.119550780971
0	20002	542.787159329201	2.388159329201
0	20065	544.157565330685	0.575565330685
0	20090	544.519354968759	1.73335496876
0	20096	544.552161901361	2.561161901361
0	20112	544.788883214348	0.410883214348
0	20134	545.240925413771	0.066925413771
0	20162	546.084781942942	0.114781942942
0	20225	547.791049533679	0.229049533679
0	20252	548.746094776926	0.388094776927
0	20258	548.968882249546	2.202882249547
0	20290	550.120480546382	0.171480546383
0	20301	550.413513298976	1.260513298976
0	20327	551.197343370502	0.452343370502
0	20345	551.944005488083	0.403005488083
0	20377	552.88487721163	0.54787721163
0	20401	553.839277062027	0.706277062027
0	20460	555.488298640928	1.559298640928
0	20479	555.660370110655	0.140370110655
0	20532	556.784910313463	2.059910313463
0	20535	556.835731344175	0.519731344175
0	20574	558.056814855719	0.94481485572
0	20590	558.662618329808	0.754618329808
0	20609	559.170969112812	0.466969112813
0	20654	560.569268274685	0.273268274685
0	20687	561.448046286302	1.948046286302
0	20698	561.814220075957	0.722220075957
0	20719	562.496615976649	0.60961597665
0	20735	562.911178346118	0.228178346118
0	20801	564.945036863035	1.466036863035
0	20817	565.089886025122	0.814886025122
0	20872	566.474259171528	1.403259171528
0	20896	566.922397322734	1.055397322734
0	20911	567.105612492009	0.442612492009
0	20958	567.932598620393	0.473598620393
0	21000	569.161973349113	0.907973349113
0	21009	569.257965446748	0.207965446748
0	21044	570.769106072214	0.923106072214
0	21081	571.545548618463	0.903548618463
0	21103	572.279088521525	0.841088521525
0	21122	572.674757331996	0.440757331996
0	21178	574.171252052022	1.141252052022
0	21187	574.438861755726	0.612861755726
0	21223	575.083124515613	0.462124515613
0	21309	577.329973895146	0.320973895146
0	21317	577.769091289125	1.556091289125
0	21338	578.096059317489	2.679059317489
0	21395	579.787428485471	1.186428485471
0	21446	580.902335523165	1.505335523165
0	21449	580.913648348069	0.720648348069
0	21461	581.064862523688	3.259862523688
0	21479	581.579653818332	0.591653818332
0	21496	581.806684449007	0.022684449007
0	21532	582.964959689262	0.384959689262
0	21572	583.856127657469	0.480127657469
0	21609	585.104487469225	0.136487469225
0	21633	585.689280733026	1.517280733026
0	21655	586.384675253102	0.620675253102
0	21671	586.755760024625	0.195760024625
0	21735	588.481866164402	0.330866164402
0	21752	588.971377207771	1.616377207771
0	21794	590.251126214996	1.304126214996
0	21825	591.077829109979	1.334829109979
0	21854	591.806804004391	1.267804004391
0	21886	592.509690768659	0.378690768659
0	21891	592.564417316596	1.229417316596
0	21919	593.143555402993	0.216555402993
0	21958	594.522680050078	0.800680050078