version 2
run Timeshared-0-20150729-10:37:01-5716
attr configname Timeshared
attr datetime 20150729-10:37:01
attr experiment Timeshared
attr inifile omnetpp.ini
attr iterationvars ""
attr iterationvars2 $repetition=0
attr measurement ""
attr network CloudDataCenterTS
attr processid 5716
attr repetition 0
attr replication #0
attr resultdir results
attr runnumber 0
attr seedset 0

vector 0  CloudDataCenterTS.sink  responseTime_0  ETV
vector 1  CloudDataCenterTS.sink  delayTime_0  ETV
vector 2  CloudDataCenterTS.sink  queuingTime_0  ETV
vector 3  CloudDataCenterTS.sink  serviceTime_0  ETV
vector 4  CloudDataCenterTS.sink  responseTime_1  ETV
vector 5  CloudDataCenterTS.sink  delayTime_1  ETV
vector 6  CloudDataCenterTS.sink  queuingTime_1  ETV
vector 7  CloudDataCenterTS.sink  serviceTime_1  ETV
0	45	0.73357684205	0.73357684205
0	80	1.199265109843	0.525803614226
0	98	1.463485678686	1.065548426404
0	124	1.801941240105	0.135176914428
0	165	2.463065116954	1.370459969909
0	299	4.869683968744	0.910806692381
0	322	5.129028694033	1.537633628264
0	345	5.436012349264	0.12111842175
1	45	0.73357684205	0.103815930066
1	80	1.199265109843	0.065388256722
1	98	1.463485678686	0.08394328529
1	124	1.801941240105	0.009116102612
1	165	2.463065116954	0.015123085366
1	299	4.869683968744	0.289442047798
1	322	5.129028694033	0.024404849073
1	345	5.436012349264	0.016213648944
2	45	0.73357684205	0
2	80	1.199265109843	0
2	98	1.463485678686	0.2
2	124	1.801941240105	0.067112527444
2	165	2.463065116954	0.100219990448
2	299	4.869683968744	0.520665117033
2	322	5.129028694033	0.3
2	345	5.436012349264	0.089729917446
3	45	0.73357684205	0.629760911984
3	80	1.199265109843	0.460415357504
3	98	1.463485678686	0.781605141114
3	124	1.801941240105	0.058948284372
3	165	2.463065116954	1.255116894095
3	299	4.869683968744	0.10069952755
3	322	5.129028694033	1.213228779191
3	345	5.436012349264	0.01517485536
4	115	1.728039483582	0.769045042999
4	142	1.994514178148	1.994514178148
4	168	2.47225504683	0.517976935665
4	182	2.735972822479	1.617800311476
4	253	4.329658502235	1.471423765152
4	286	4.691254434589	1.512165111167
4	311	5.068297250673	0.388619958378
4	327	5.208567978395	1.222477617527
5	115	1.728039483582	0.041157799624
5	142	1.994514178148	0.10446125083
5	168	2.47225504683	0.150578425863
5	182	2.735972822479	0.204031425794
5	253	4.329658502235	0.087232119504
5	286	4.691254434589	0.064169470203
5	311	5.068297250673	0.060908242318
5	327	5.208567978395	0.084033470561
6	115	1.728039483582	0.341005559417
6	142	1.994514178148	0.386881683958
6	168	2.47225504683	0
6	182	2.735972822479	0.811629595034
6	253	4.329658502235	0.1
6	286	4.691254434589	0.952852073263
6	311	5.068297250673	0.162749090436
6	327	5.208567978395	0.321298647487
7	115	1.728039483582	0.386881683958
7	142	1.994514178148	1.50317124336
7	168	2.47225504683	0.367398509802
7	182	2.735972822479	0.602139290648
7	253	4.329658502235	1.284191645648
7	286	4.691254434589	0.495143567701
7	311	5.068297250673	0.164962625624
7	327	5.208567978395	0.817145499479
