file 1376508 1442246848                                         
version 2
run Timeshared-0-20150914-18:07:21-9327
attr configname Timeshared
attr datetime 20150914-18:07:21
attr experiment Timeshared
attr inifile omnetpp.ini
attr iterationvars ""
attr iterationvars2 $repetition=0
attr measurement ""
attr network CloudDataCenterTS
attr processid 9327
attr repetition 0
attr replication #0
attr resultdir results
attr runnumber 0
attr seedset 0

vector 0  CloudDataCenterTS.sink  responseTime_0  ETV
vector 1  CloudDataCenterTS.sink  delayTime_0  ETV
vector 2  CloudDataCenterTS.sink  queuingTime_0  ETV
vector 3  CloudDataCenterTS.sink  serviceTime_0  ETV
vector 4  CloudDataCenterTS.sink  responseTime_1  ETV
vector 5  CloudDataCenterTS.sink  delayTime_1  ETV
vector 6  CloudDataCenterTS.sink  queuingTime_1  ETV
vector 7  CloudDataCenterTS.sink  serviceTime_1  ETV
0	804 183819 36 132139 0.724976306026 3599.497557227546 4522 0.002491813425 12.088483727123 4434.207212425 9281.4108552935
1	184623 183782 36 132139 0.724976306026 3599.497557227546 4522 0.125600874332 1.148841212416 1059.2560297797 301.09016437332
2	368405 136528 36 132139 0.724976306026 3599.497557227546 4522 0 6.4892576537 661.81130747858 930.81188893099
3	504933 183804 36 132139 0.724976306026 3599.497557227546 4522 0.629006021108 8.134619485713 6121.7106211648 10761.008383833
4	688737 183597 47 132092 1.553978140538 3597.820623313611 4520 0.005717532995 13.953331163422 4572.1350836713 10017.789232477
5	872334 183602 47 132092 1.553978140538 3597.820623313611 4520 0.125598535189 1.113891363008 1046.2281160136 293.86874970522
6	1055936 136973 47 132092 1.553978140538 3597.820623313611 4520 0 6.720574526476 701.38673553628 1112.7409203221
7	1192909 183599 47 132092 1.553978140538 3597.820623313611 4520 0.629059066697 8.707487508165 6232.6239183255 11160.023610136
