file 3009 1438159108                                            
version 2
run Timeshared-0-20150729-10:37:01-5716
attr configname Timeshared
attr datetime 20150729-10:37:01
attr experiment Timeshared
attr inifile omnetpp.ini
attr iterationvars ""
attr iterationvars2 $repetition=0
attr measurement ""
attr network CloudDataCenterTS
attr processid 5716
attr repetition 0
attr replication #0
attr resultdir results
attr runnumber 0
attr seedset 0

vector 0  CloudDataCenterTS.sink  responseTime_0  ETV
vector 1  CloudDataCenterTS.sink  delayTime_0  ETV
vector 2  CloudDataCenterTS.sink  queuingTime_0  ETV
vector 3  CloudDataCenterTS.sink  serviceTime_0  ETV
vector 4  CloudDataCenterTS.sink  responseTime_1  ETV
vector 5  CloudDataCenterTS.sink  delayTime_1  ETV
vector 6  CloudDataCenterTS.sink  queuingTime_1  ETV
vector 7  CloudDataCenterTS.sink  serviceTime_1  ETV
0	804 282 45 345 0.73357684205 5.436012349264 8 0.12111842175 1.537633628264 6.400124509412 7.054986877996
1	1086 283 45 345 0.73357684205 5.436012349264 8 0.009116102612 0.289442047798 0.607447205871 0.10704683573956
2	1369 236 45 345 0.73357684205 5.436012349264 8 0 0.520665117033 1.277727552371 0.42369176000517
3	1605 282 45 345 0.73357684205 5.436012349264 8 0.01517485536 1.255116894095 4.51494975117 4.2805757641186
4	1887 287 115 327 1.728039483582 5.208567978395 8 0.388619958378 1.994514178148 9.494022920512 13.552303256176
5	2174 286 115 327 1.728039483582 5.208567978395 8 0.041157799624 0.204031425794 0.796572204697 0.099407404177858
6	2460 263 115 327 1.728039483582 5.208567978395 8 0 0.952852073263 3.076416649595 1.9723519893069
7	2723 286 115 327 1.728039483582 5.208567978395 8 0.164962625624 1.50317124336 5.62103406622 5.4960093851528
